 184 184   0   0
  0.2733267E+02  0.2556000E-08  0.1967610E-08  0.1000000E-08  0.5000000E-15
  1.000000000000000E-004
  CAR 
 unknown system                          
      5.54859494    -23.98974959 2000     -1.65577654      1.00000000
    -23.990  0.0000E+00  0.0000E+00
    -23.975  0.0000E+00  0.0000E+00
    -23.960  0.0000E+00  0.0000E+00
    -23.945  0.0000E+00  0.0000E+00
    -23.931  0.0000E+00  0.0000E+00
    -23.916  0.0000E+00  0.0000E+00
    -23.901  0.0000E+00  0.0000E+00
    -23.886  0.0000E+00  0.0000E+00
    -23.872  0.0000E+00  0.0000E+00
    -23.857  0.0000E+00  0.0000E+00
    -23.842  0.0000E+00  0.0000E+00
    -23.827  0.0000E+00  0.0000E+00
    -23.812  0.0000E+00  0.0000E+00
    -23.798  0.0000E+00  0.0000E+00
    -23.783  0.0000E+00  0.0000E+00
    -23.768  0.0000E+00  0.0000E+00
    -23.753  0.0000E+00  0.0000E+00
    -23.739  0.0000E+00  0.0000E+00
    -23.724  0.0000E+00  0.0000E+00
    -23.709  0.0000E+00  0.0000E+00
    -23.694  0.0000E+00  0.0000E+00
    -23.679  0.0000E+00  0.0000E+00
    -23.665  0.0000E+00  0.0000E+00
    -23.650  0.0000E+00  0.0000E+00
    -23.635  0.0000E+00  0.0000E+00
    -23.620  0.0000E+00  0.0000E+00
    -23.606  0.0000E+00  0.0000E+00
    -23.591  0.0000E+00  0.0000E+00
    -23.576  0.0000E+00  0.0000E+00
    -23.561  0.0000E+00  0.0000E+00
    -23.546  0.0000E+00  0.0000E+00
    -23.532  0.0000E+00  0.0000E+00
    -23.517  0.0000E+00  0.0000E+00
    -23.502  0.0000E+00  0.0000E+00
    -23.487  0.0000E+00  0.0000E+00
    -23.473  0.0000E+00  0.0000E+00
    -23.458  0.0000E+00  0.0000E+00
    -23.443  0.0000E+00  0.0000E+00
    -23.428  0.0000E+00  0.0000E+00
    -23.413  0.0000E+00  0.0000E+00
    -23.399  0.0000E+00  0.0000E+00
    -23.384  0.0000E+00  0.0000E+00
    -23.369  0.0000E+00  0.0000E+00
    -23.354  0.0000E+00  0.0000E+00
    -23.340  0.0000E+00  0.0000E+00
    -23.325  0.0000E+00  0.0000E+00
    -23.310  0.0000E+00  0.0000E+00
    -23.295  0.0000E+00  0.0000E+00
    -23.280  0.0000E+00  0.0000E+00
    -23.266  0.0000E+00  0.0000E+00
    -23.251  0.0000E+00  0.0000E+00
    -23.236  0.0000E+00  0.0000E+00
    -23.221  0.0000E+00  0.0000E+00
    -23.207  0.0000E+00  0.0000E+00
    -23.192  0.0000E+00  0.0000E+00
    -23.177  0.0000E+00  0.0000E+00
    -23.162  0.7513E-14  0.1110E-15
    -23.147  0.7513E-14  0.2220E-15
    -23.133  0.3005E-13  0.6661E-15
    -23.118  0.5259E-13  0.1443E-14
    -23.103  0.1352E-12  0.3442E-14
    -23.088  0.3030E-12  0.7920E-14
    -23.074  0.6812E-12  0.1799E-13
    -23.059  0.1513E-11  0.4034E-13
    -23.044  0.3333E-11  0.8959E-13
    -23.029  0.7255E-11  0.1968E-12
    -23.014  0.1563E-10  0.4278E-12
    -23.000  0.3331E-10  0.9200E-12
    -22.985  0.7021E-10  0.1957E-11
    -22.970  0.1464E-09  0.4120E-11
    -22.955  0.3018E-09  0.8580E-11
    -22.941  0.6157E-09  0.1768E-10
    -22.926  0.1242E-08  0.3603E-10
    -22.911  0.2479E-08  0.7266E-10
    -22.896  0.4894E-08  0.1450E-09
    -22.882  0.9556E-08  0.2862E-09
    -22.867  0.1846E-07  0.5589E-09
    -22.852  0.3527E-07  0.1080E-08
    -22.837  0.6665E-07  0.2065E-08
    -22.822  0.1246E-06  0.3906E-08
    -22.808  0.2304E-06  0.7310E-08
    -22.793  0.4213E-06  0.1354E-07
    -22.778  0.7622E-06  0.2480E-07
    -22.763  0.1364E-05  0.4495E-07
    -22.749  0.2415E-05  0.8063E-07
    -22.734  0.4228E-05  0.1431E-06
    -22.719  0.7322E-05  0.2513E-06
    -22.704  0.1254E-04  0.4366E-06
    -22.689  0.2126E-04  0.7507E-06
    -22.675  0.3563E-04  0.1277E-05
    -22.660  0.5907E-04  0.2150E-05
    -22.645  0.9687E-04  0.3581E-05
    -22.630  0.1571E-03  0.5903E-05
    -22.616  0.2522E-03  0.9629E-05
    -22.601  0.4002E-03  0.1554E-04
    -22.586  0.6283E-03  0.2483E-04
    -22.571  0.9758E-03  0.3925E-04
    -22.556  0.1499E-02  0.6139E-04
    -22.542  0.2277E-02  0.9505E-04
    -22.527  0.3423E-02  0.1456E-03
    -22.512  0.5089E-02  0.2208E-03
    -22.497  0.7483E-02  0.3314E-03
    -22.483  0.1088E-01  0.4922E-03
    -22.468  0.1566E-01  0.7236E-03
    -22.453  0.2229E-01  0.1053E-02
    -22.438  0.3137E-01  0.1517E-02
    -22.423  0.4369E-01  0.2162E-02
    -22.409  0.6017E-01  0.3051E-02
    -22.394  0.8198E-01  0.4263E-02
    -22.379  0.1105E+00  0.5895E-02
    -22.364  0.1473E+00  0.8071E-02
    -22.350  0.1942E+00  0.1094E-01
    -22.335  0.2533E+00  0.1468E-01
    -22.320  0.3267E+00  0.1951E-01
    -22.305  0.4170E+00  0.2567E-01
    -22.290  0.5263E+00  0.3345E-01
    -22.276  0.6572E+00  0.4316E-01
    -22.261  0.8116E+00  0.5515E-01
    -22.246  0.9915E+00  0.6980E-01
    -22.231  0.1198E+01  0.8751E-01
    -22.217  0.1432E+01  0.1087E+00
    -22.202  0.1693E+01  0.1337E+00
    -22.187  0.1980E+01  0.1629E+00
    -22.172  0.2291E+01  0.1968E+00
    -22.157  0.2621E+01  0.2355E+00
    -22.143  0.2967E+01  0.2794E+00
    -22.128  0.3321E+01  0.3284E+00
    -22.113  0.3678E+01  0.3828E+00
    -22.098  0.4029E+01  0.4423E+00
    -22.084  0.4366E+01  0.5068E+00
    -22.069  0.4680E+01  0.5760E+00
    -22.054  0.4962E+01  0.6493E+00
    -22.039  0.5204E+01  0.7262E+00
    -22.024  0.5400E+01  0.8060E+00
    -22.010  0.5543E+01  0.8879E+00
    -21.995  0.5629E+01  0.9711E+00
    -21.980  0.5656E+01  0.1055E+01
    -21.965  0.5624E+01  0.1138E+01
    -21.951  0.5535E+01  0.1220E+01
    -21.936  0.5394E+01  0.1299E+01
    -21.921  0.5205E+01  0.1376E+01
    -21.906  0.4979E+01  0.1450E+01
    -21.891  0.4723E+01  0.1520E+01
    -21.877  0.4449E+01  0.1585E+01
    -21.862  0.4168E+01  0.1647E+01
    -21.847  0.3893E+01  0.1704E+01
    -21.832  0.3635E+01  0.1758E+01
    -21.818  0.3407E+01  0.1808E+01
    -21.803  0.3218E+01  0.1856E+01
    -21.788  0.3081E+01  0.1902E+01
    -21.773  0.3003E+01  0.1946E+01
    -21.758  0.2993E+01  0.1990E+01
    -21.744  0.3058E+01  0.2035E+01
    -21.729  0.3201E+01  0.2083E+01
    -21.714  0.3426E+01  0.2133E+01
    -21.699  0.3733E+01  0.2188E+01
    -21.685  0.4123E+01  0.2249E+01
    -21.670  0.4591E+01  0.2317E+01
    -21.655  0.5132E+01  0.2393E+01
    -21.640  0.5739E+01  0.2478E+01
    -21.625  0.6403E+01  0.2572E+01
    -21.611  0.7114E+01  0.2678E+01
    -21.596  0.7858E+01  0.2794E+01
    -21.581  0.8622E+01  0.2921E+01
    -21.566  0.9393E+01  0.3060E+01
    -21.552  0.1016E+02  0.3210E+01
    -21.537  0.1090E+02  0.3371E+01
    -21.522  0.1162E+02  0.3543E+01
    -21.507  0.1229E+02  0.3724E+01
    -21.493  0.1291E+02  0.3915E+01
    -21.478  0.1348E+02  0.4114E+01
    -21.463  0.1399E+02  0.4321E+01
    -21.448  0.1444E+02  0.4534E+01
    -21.433  0.1483E+02  0.4753E+01
    -21.419  0.1518E+02  0.4978E+01
    -21.404  0.1548E+02  0.5206E+01
    -21.389  0.1575E+02  0.5439E+01
    -21.374  0.1598E+02  0.5675E+01
    -21.360  0.1620E+02  0.5915E+01
    -21.345  0.1639E+02  0.6157E+01
    -21.330  0.1658E+02  0.6402E+01
    -21.315  0.1677E+02  0.6650E+01
    -21.300  0.1695E+02  0.6900E+01
    -21.286  0.1713E+02  0.7153E+01
    -21.271  0.1730E+02  0.7409E+01
    -21.256  0.1747E+02  0.7667E+01
    -21.241  0.1762E+02  0.7927E+01
    -21.227  0.1777E+02  0.8190E+01
    -21.212  0.1789E+02  0.8454E+01
    -21.197  0.1800E+02  0.8720E+01
    -21.182  0.1808E+02  0.8987E+01
    -21.167  0.1814E+02  0.9256E+01
    -21.153  0.1818E+02  0.9524E+01
    -21.138  0.1821E+02  0.9793E+01
    -21.123  0.1822E+02  0.1006E+02
    -21.108  0.1823E+02  0.1033E+02
    -21.094  0.1824E+02  0.1060E+02
    -21.079  0.1826E+02  0.1087E+02
    -21.064  0.1830E+02  0.1114E+02
    -21.049  0.1837E+02  0.1141E+02
    -21.034  0.1847E+02  0.1169E+02
    -21.020  0.1860E+02  0.1196E+02
    -21.005  0.1878E+02  0.1224E+02
    -20.990  0.1899E+02  0.1252E+02
    -20.975  0.1923E+02  0.1280E+02
    -20.961  0.1950E+02  0.1309E+02
    -20.946  0.1979E+02  0.1338E+02
    -20.931  0.2009E+02  0.1368E+02
    -20.916  0.2039E+02  0.1398E+02
    -20.901  0.2069E+02  0.1429E+02
    -20.887  0.2096E+02  0.1460E+02
    -20.872  0.2121E+02  0.1491E+02
    -20.857  0.2142E+02  0.1523E+02
    -20.842  0.2159E+02  0.1555E+02
    -20.828  0.2172E+02  0.1587E+02
    -20.813  0.2181E+02  0.1619E+02
    -20.798  0.2186E+02  0.1651E+02
    -20.783  0.2187E+02  0.1684E+02
    -20.768  0.2185E+02  0.1716E+02
    -20.754  0.2180E+02  0.1748E+02
    -20.739  0.2174E+02  0.1780E+02
    -20.724  0.2166E+02  0.1812E+02
    -20.709  0.2159E+02  0.1844E+02
    -20.695  0.2151E+02  0.1876E+02
    -20.680  0.2145E+02  0.1908E+02
    -20.665  0.2140E+02  0.1939E+02
    -20.650  0.2138E+02  0.1971E+02
    -20.635  0.2137E+02  0.2002E+02
    -20.621  0.2139E+02  0.2034E+02
    -20.606  0.2143E+02  0.2066E+02
    -20.591  0.2149E+02  0.2097E+02
    -20.576  0.2158E+02  0.2129E+02
    -20.562  0.2169E+02  0.2161E+02
    -20.547  0.2181E+02  0.2194E+02
    -20.532  0.2195E+02  0.2226E+02
    -20.517  0.2210E+02  0.2259E+02
    -20.502  0.2226E+02  0.2291E+02
    -20.488  0.2242E+02  0.2325E+02
    -20.473  0.2258E+02  0.2358E+02
    -20.458  0.2273E+02  0.2392E+02
    -20.443  0.2288E+02  0.2425E+02
    -20.429  0.2303E+02  0.2459E+02
    -20.414  0.2316E+02  0.2494E+02
    -20.399  0.2329E+02  0.2528E+02
    -20.384  0.2341E+02  0.2563E+02
    -20.369  0.2352E+02  0.2597E+02
    -20.355  0.2362E+02  0.2632E+02
    -20.340  0.2373E+02  0.2667E+02
    -20.325  0.2383E+02  0.2703E+02
    -20.310  0.2394E+02  0.2738E+02
    -20.296  0.2405E+02  0.2773E+02
    -20.281  0.2417E+02  0.2809E+02
    -20.266  0.2429E+02  0.2845E+02
    -20.251  0.2442E+02  0.2881E+02
    -20.237  0.2455E+02  0.2917E+02
    -20.222  0.2469E+02  0.2954E+02
    -20.207  0.2483E+02  0.2991E+02
    -20.192  0.2496E+02  0.3028E+02
    -20.177  0.2508E+02  0.3065E+02
    -20.163  0.2519E+02  0.3102E+02
    -20.148  0.2528E+02  0.3139E+02
    -20.133  0.2535E+02  0.3177E+02
    -20.118  0.2540E+02  0.3214E+02
    -20.104  0.2543E+02  0.3252E+02
    -20.089  0.2544E+02  0.3289E+02
    -20.074  0.2542E+02  0.3327E+02
    -20.059  0.2538E+02  0.3364E+02
    -20.044  0.2533E+02  0.3402E+02
    -20.030  0.2526E+02  0.3439E+02
    -20.015  0.2518E+02  0.3476E+02
    -20.000  0.2509E+02  0.3513E+02
    -19.985  0.2500E+02  0.3550E+02
    -19.971  0.2491E+02  0.3587E+02
    -19.956  0.2483E+02  0.3624E+02
    -19.941  0.2475E+02  0.3660E+02
    -19.926  0.2468E+02  0.3697E+02
    -19.911  0.2462E+02  0.3733E+02
    -19.897  0.2457E+02  0.3770E+02
    -19.882  0.2453E+02  0.3806E+02
    -19.867  0.2450E+02  0.3842E+02
    -19.852  0.2448E+02  0.3878E+02
    -19.838  0.2446E+02  0.3914E+02
    -19.823  0.2446E+02  0.3950E+02
    -19.808  0.2445E+02  0.3987E+02
    -19.793  0.2446E+02  0.4023E+02
    -19.778  0.2446E+02  0.4059E+02
    -19.764  0.2447E+02  0.4095E+02
    -19.749  0.2447E+02  0.4131E+02
    -19.734  0.2448E+02  0.4167E+02
    -19.719  0.2448E+02  0.4204E+02
    -19.705  0.2449E+02  0.4240E+02
    -19.690  0.2449E+02  0.4276E+02
    -19.675  0.2450E+02  0.4312E+02
    -19.660  0.2451E+02  0.4348E+02
    -19.645  0.2452E+02  0.4385E+02
    -19.631  0.2455E+02  0.4421E+02
    -19.616  0.2458E+02  0.4457E+02
    -19.601  0.2462E+02  0.4494E+02
    -19.586  0.2467E+02  0.4530E+02
    -19.572  0.2474E+02  0.4567E+02
    -19.557  0.2483E+02  0.4603E+02
    -19.542  0.2494E+02  0.4640E+02
    -19.527  0.2506E+02  0.4677E+02
    -19.512  0.2520E+02  0.4714E+02
    -19.498  0.2536E+02  0.4752E+02
    -19.483  0.2553E+02  0.4790E+02
    -19.468  0.2572E+02  0.4828E+02
    -19.453  0.2592E+02  0.4866E+02
    -19.439  0.2612E+02  0.4904E+02
    -19.424  0.2632E+02  0.4943E+02
    -19.409  0.2653E+02  0.4983E+02
    -19.394  0.2673E+02  0.5022E+02
    -19.379  0.2692E+02  0.5062E+02
    -19.365  0.2709E+02  0.5102E+02
    -19.350  0.2726E+02  0.5142E+02
    -19.335  0.2740E+02  0.5183E+02
    -19.320  0.2752E+02  0.5223E+02
    -19.306  0.2762E+02  0.5264E+02
    -19.291  0.2770E+02  0.5305E+02
    -19.276  0.2775E+02  0.5346E+02
    -19.261  0.2778E+02  0.5387E+02
    -19.246  0.2778E+02  0.5428E+02
    -19.232  0.2775E+02  0.5469E+02
    -19.217  0.2771E+02  0.5510E+02
    -19.202  0.2764E+02  0.5551E+02
    -19.187  0.2756E+02  0.5592E+02
    -19.173  0.2747E+02  0.5632E+02
    -19.158  0.2736E+02  0.5673E+02
    -19.143  0.2726E+02  0.5713E+02
    -19.128  0.2715E+02  0.5753E+02
    -19.113  0.2705E+02  0.5793E+02
    -19.099  0.2696E+02  0.5833E+02
    -19.084  0.2689E+02  0.5873E+02
    -19.069  0.2684E+02  0.5912E+02
    -19.054  0.2681E+02  0.5952E+02
    -19.040  0.2680E+02  0.5992E+02
    -19.025  0.2683E+02  0.6031E+02
    -19.010  0.2688E+02  0.6071E+02
    -18.995  0.2696E+02  0.6111E+02
    -18.980  0.2706E+02  0.6151E+02
    -18.966  0.2719E+02  0.6191E+02
    -18.951  0.2733E+02  0.6231E+02
    -18.936  0.2749E+02  0.6272E+02
    -18.921  0.2766E+02  0.6313E+02
    -18.907  0.2783E+02  0.6354E+02
    -18.892  0.2800E+02  0.6395E+02
    -18.877  0.2816E+02  0.6437E+02
    -18.862  0.2830E+02  0.6479E+02
    -18.848  0.2844E+02  0.6521E+02
    -18.833  0.2855E+02  0.6563E+02
    -18.818  0.2864E+02  0.6605E+02
    -18.803  0.2871E+02  0.6648E+02
    -18.788  0.2876E+02  0.6690E+02
    -18.774  0.2879E+02  0.6733E+02
    -18.759  0.2881E+02  0.6775E+02
    -18.744  0.2880E+02  0.6818E+02
    -18.729  0.2879E+02  0.6860E+02
    -18.715  0.2877E+02  0.6903E+02
    -18.700  0.2875E+02  0.6945E+02
    -18.685  0.2873E+02  0.6988E+02
    -18.670  0.2871E+02  0.7030E+02
    -18.655  0.2870E+02  0.7073E+02
    -18.641  0.2869E+02  0.7115E+02
    -18.626  0.2870E+02  0.7157E+02
    -18.611  0.2872E+02  0.7200E+02
    -18.596  0.2875E+02  0.7242E+02
    -18.582  0.2879E+02  0.7285E+02
    -18.567  0.2884E+02  0.7328E+02
    -18.552  0.2890E+02  0.7370E+02
    -18.537  0.2896E+02  0.7413E+02
    -18.522  0.2903E+02  0.7456E+02
    -18.508  0.2909E+02  0.7499E+02
    -18.493  0.2915E+02  0.7542E+02
    -18.478  0.2921E+02  0.7585E+02
    -18.463  0.2927E+02  0.7628E+02
    -18.449  0.2931E+02  0.7672E+02
    -18.434  0.2935E+02  0.7715E+02
    -18.419  0.2937E+02  0.7758E+02
    -18.404  0.2939E+02  0.7802E+02
    -18.389  0.2939E+02  0.7845E+02
    -18.375  0.2939E+02  0.7889E+02
    -18.360  0.2938E+02  0.7932E+02
    -18.345  0.2936E+02  0.7976E+02
    -18.330  0.2934E+02  0.8019E+02
    -18.316  0.2931E+02  0.8062E+02
    -18.301  0.2928E+02  0.8105E+02
    -18.286  0.2924E+02  0.8149E+02
    -18.271  0.2921E+02  0.8192E+02
    -18.256  0.2918E+02  0.8235E+02
    -18.242  0.2914E+02  0.8278E+02
    -18.227  0.2911E+02  0.8321E+02
    -18.212  0.2909E+02  0.8364E+02
    -18.197  0.2906E+02  0.8407E+02
    -18.183  0.2905E+02  0.8450E+02
    -18.168  0.2904E+02  0.8493E+02
    -18.153  0.2904E+02  0.8536E+02
    -18.138  0.2905E+02  0.8579E+02
    -18.123  0.2906E+02  0.8622E+02
    -18.109  0.2909E+02  0.8665E+02
    -18.094  0.2913E+02  0.8708E+02
    -18.079  0.2919E+02  0.8751E+02
    -18.064  0.2925E+02  0.8794E+02
    -18.050  0.2933E+02  0.8837E+02
    -18.035  0.2942E+02  0.8881E+02
    -18.020  0.2951E+02  0.8924E+02
    -18.005  0.2962E+02  0.8968E+02
    -17.990  0.2974E+02  0.9012E+02
    -17.976  0.2987E+02  0.9056E+02
    -17.961  0.3000E+02  0.9101E+02
    -17.946  0.3013E+02  0.9145E+02
    -17.931  0.3026E+02  0.9190E+02
    -17.917  0.3039E+02  0.9235E+02
    -17.902  0.3050E+02  0.9280E+02
    -17.887  0.3061E+02  0.9325E+02
    -17.872  0.3070E+02  0.9370E+02
    -17.857  0.3077E+02  0.9416E+02
    -17.843  0.3082E+02  0.9461E+02
    -17.828  0.3084E+02  0.9507E+02
    -17.813  0.3083E+02  0.9553E+02
    -17.798  0.3079E+02  0.9598E+02
    -17.784  0.3073E+02  0.9643E+02
    -17.769  0.3063E+02  0.9689E+02
    -17.754  0.3051E+02  0.9734E+02
    -17.739  0.3037E+02  0.9779E+02
    -17.724  0.3020E+02  0.9823E+02
    -17.710  0.3002E+02  0.9868E+02
    -17.695  0.2984E+02  0.9912E+02
    -17.680  0.2965E+02  0.9956E+02
    -17.665  0.2946E+02  0.9999E+02
    -17.651  0.2928E+02  0.1004E+03
    -17.636  0.2912E+02  0.1009E+03
    -17.621  0.2897E+02  0.1013E+03
    -17.606  0.2884E+02  0.1017E+03
    -17.591  0.2873E+02  0.1021E+03
    -17.577  0.2864E+02  0.1026E+03
    -17.562  0.2857E+02  0.1030E+03
    -17.547  0.2852E+02  0.1034E+03
    -17.532  0.2848E+02  0.1038E+03
    -17.518  0.2846E+02  0.1042E+03
    -17.503  0.2844E+02  0.1047E+03
    -17.488  0.2842E+02  0.1051E+03
    -17.473  0.2840E+02  0.1055E+03
    -17.459  0.2838E+02  0.1059E+03
    -17.444  0.2836E+02  0.1063E+03
    -17.429  0.2833E+02  0.1068E+03
    -17.414  0.2829E+02  0.1072E+03
    -17.399  0.2824E+02  0.1076E+03
    -17.385  0.2819E+02  0.1080E+03
    -17.370  0.2813E+02  0.1084E+03
    -17.355  0.2807E+02  0.1088E+03
    -17.340  0.2801E+02  0.1093E+03
    -17.326  0.2796E+02  0.1097E+03
    -17.311  0.2791E+02  0.1101E+03
    -17.296  0.2788E+02  0.1105E+03
    -17.281  0.2786E+02  0.1109E+03
    -17.266  0.2786E+02  0.1113E+03
    -17.252  0.2788E+02  0.1117E+03
    -17.237  0.2792E+02  0.1121E+03
    -17.222  0.2799E+02  0.1126E+03
    -17.207  0.2807E+02  0.1130E+03
    -17.193  0.2818E+02  0.1134E+03
    -17.178  0.2831E+02  0.1138E+03
    -17.163  0.2846E+02  0.1142E+03
    -17.148  0.2862E+02  0.1146E+03
    -17.133  0.2879E+02  0.1151E+03
    -17.119  0.2896E+02  0.1155E+03
    -17.104  0.2914E+02  0.1159E+03
    -17.089  0.2932E+02  0.1164E+03
    -17.074  0.2950E+02  0.1168E+03
    -17.060  0.2966E+02  0.1172E+03
    -17.045  0.2981E+02  0.1177E+03
    -17.030  0.2995E+02  0.1181E+03
    -17.015  0.3008E+02  0.1186E+03
    -17.000  0.3018E+02  0.1190E+03
    -16.986  0.3027E+02  0.1195E+03
    -16.971  0.3034E+02  0.1199E+03
    -16.956  0.3038E+02  0.1204E+03
    -16.941  0.3041E+02  0.1208E+03
    -16.927  0.3041E+02  0.1213E+03
    -16.912  0.3039E+02  0.1217E+03
    -16.897  0.3034E+02  0.1222E+03
    -16.882  0.3027E+02  0.1226E+03
    -16.867  0.3017E+02  0.1230E+03
    -16.853  0.3005E+02  0.1235E+03
    -16.838  0.2990E+02  0.1239E+03
    -16.823  0.2973E+02  0.1244E+03
    -16.808  0.2953E+02  0.1248E+03
    -16.794  0.2931E+02  0.1252E+03
    -16.779  0.2908E+02  0.1257E+03
    -16.764  0.2883E+02  0.1261E+03
    -16.749  0.2857E+02  0.1265E+03
    -16.734  0.2830E+02  0.1269E+03
    -16.720  0.2804E+02  0.1273E+03
    -16.705  0.2779E+02  0.1278E+03
    -16.690  0.2755E+02  0.1282E+03
    -16.675  0.2733E+02  0.1286E+03
    -16.661  0.2714E+02  0.1290E+03
    -16.646  0.2698E+02  0.1294E+03
    -16.631  0.2686E+02  0.1298E+03
    -16.616  0.2677E+02  0.1302E+03
    -16.601  0.2673E+02  0.1306E+03
    -16.587  0.2672E+02  0.1310E+03
    -16.572  0.2675E+02  0.1313E+03
    -16.557  0.2681E+02  0.1317E+03
    -16.542  0.2690E+02  0.1321E+03
    -16.528  0.2702E+02  0.1325E+03
    -16.513  0.2716E+02  0.1329E+03
    -16.498  0.2732E+02  0.1333E+03
    -16.483  0.2748E+02  0.1338E+03
    -16.468  0.2764E+02  0.1342E+03
    -16.454  0.2780E+02  0.1346E+03
    -16.439  0.2795E+02  0.1350E+03
    -16.424  0.2808E+02  0.1354E+03
    -16.409  0.2820E+02  0.1358E+03
    -16.395  0.2829E+02  0.1362E+03
    -16.380  0.2836E+02  0.1367E+03
    -16.365  0.2841E+02  0.1371E+03
    -16.350  0.2844E+02  0.1375E+03
    -16.335  0.2844E+02  0.1379E+03
    -16.321  0.2844E+02  0.1383E+03
    -16.306  0.2842E+02  0.1388E+03
    -16.291  0.2840E+02  0.1392E+03
    -16.276  0.2838E+02  0.1396E+03
    -16.262  0.2836E+02  0.1400E+03
    -16.247  0.2836E+02  0.1404E+03
    -16.232  0.2837E+02  0.1408E+03
    -16.217  0.2840E+02  0.1413E+03
    -16.203  0.2845E+02  0.1417E+03
    -16.188  0.2851E+02  0.1421E+03
    -16.173  0.2860E+02  0.1425E+03
    -16.158  0.2871E+02  0.1430E+03
    -16.143  0.2883E+02  0.1434E+03
    -16.129  0.2895E+02  0.1438E+03
    -16.114  0.2908E+02  0.1442E+03
    -16.099  0.2920E+02  0.1447E+03
    -16.084  0.2931E+02  0.1451E+03
    -16.070  0.2940E+02  0.1455E+03
    -16.055  0.2947E+02  0.1460E+03
    -16.040  0.2950E+02  0.1464E+03
    -16.025  0.2951E+02  0.1468E+03
    -16.010  0.2947E+02  0.1473E+03
    -15.996  0.2940E+02  0.1477E+03
    -15.981  0.2929E+02  0.1482E+03
    -15.966  0.2915E+02  0.1486E+03
    -15.951  0.2898E+02  0.1490E+03
    -15.937  0.2878E+02  0.1494E+03
    -15.922  0.2856E+02  0.1499E+03
    -15.907  0.2832E+02  0.1503E+03
    -15.892  0.2808E+02  0.1507E+03
    -15.877  0.2784E+02  0.1511E+03
    -15.863  0.2760E+02  0.1515E+03
    -15.848  0.2738E+02  0.1519E+03
    -15.833  0.2718E+02  0.1523E+03
    -15.818  0.2699E+02  0.1527E+03
    -15.804  0.2684E+02  0.1531E+03
    -15.789  0.2672E+02  0.1535E+03
    -15.774  0.2664E+02  0.1539E+03
    -15.759  0.2659E+02  0.1543E+03
    -15.744  0.2658E+02  0.1547E+03
    -15.730  0.2661E+02  0.1551E+03
    -15.715  0.2669E+02  0.1555E+03
    -15.700  0.2680E+02  0.1559E+03
    -15.685  0.2696E+02  0.1563E+03
    -15.671  0.2715E+02  0.1567E+03
    -15.656  0.2738E+02  0.1571E+03
    -15.641  0.2764E+02  0.1575E+03
    -15.626  0.2793E+02  0.1579E+03
    -15.611  0.2823E+02  0.1583E+03
    -15.597  0.2856E+02  0.1587E+03
    -15.582  0.2889E+02  0.1592E+03
    -15.567  0.2922E+02  0.1596E+03
    -15.552  0.2954E+02  0.1600E+03
    -15.538  0.2984E+02  0.1605E+03
    -15.523  0.3012E+02  0.1609E+03
    -15.508  0.3037E+02  0.1614E+03
    -15.493  0.3057E+02  0.1618E+03
    -15.478  0.3074E+02  0.1623E+03
    -15.464  0.3086E+02  0.1627E+03
    -15.449  0.3092E+02  0.1632E+03
    -15.434  0.3095E+02  0.1636E+03
    -15.419  0.3092E+02  0.1641E+03
    -15.405  0.3085E+02  0.1646E+03
    -15.390  0.3074E+02  0.1650E+03
    -15.375  0.3060E+02  0.1655E+03
    -15.360  0.3043E+02  0.1659E+03
    -15.345  0.3024E+02  0.1664E+03
    -15.331  0.3004E+02  0.1668E+03
    -15.316  0.2982E+02  0.1672E+03
    -15.301  0.2960E+02  0.1677E+03
    -15.286  0.2938E+02  0.1681E+03
    -15.272  0.2915E+02  0.1685E+03
    -15.257  0.2894E+02  0.1690E+03
    -15.242  0.2872E+02  0.1694E+03
    -15.227  0.2852E+02  0.1698E+03
    -15.212  0.2831E+02  0.1702E+03
    -15.198  0.2811E+02  0.1706E+03
    -15.183  0.2792E+02  0.1711E+03
    -15.168  0.2773E+02  0.1715E+03
    -15.153  0.2755E+02  0.1719E+03
    -15.139  0.2738E+02  0.1723E+03
    -15.124  0.2721E+02  0.1727E+03
    -15.109  0.2705E+02  0.1731E+03
    -15.094  0.2691E+02  0.1735E+03
    -15.079  0.2679E+02  0.1739E+03
    -15.065  0.2668E+02  0.1743E+03
    -15.050  0.2660E+02  0.1747E+03
    -15.035  0.2655E+02  0.1751E+03
    -15.020  0.2652E+02  0.1754E+03
    -15.006  0.2652E+02  0.1758E+03
    -14.991  0.2655E+02  0.1762E+03
    -14.976  0.2661E+02  0.1766E+03
    -14.961  0.2671E+02  0.1770E+03
    -14.946  0.2683E+02  0.1774E+03
    -14.932  0.2698E+02  0.1778E+03
    -14.917  0.2715E+02  0.1782E+03
    -14.902  0.2734E+02  0.1786E+03
    -14.887  0.2755E+02  0.1790E+03
    -14.873  0.2777E+02  0.1794E+03
    -14.858  0.2800E+02  0.1799E+03
    -14.843  0.2823E+02  0.1803E+03
    -14.828  0.2846E+02  0.1807E+03
    -14.814  0.2869E+02  0.1811E+03
    -14.799  0.2891E+02  0.1815E+03
    -14.784  0.2913E+02  0.1820E+03
    -14.769  0.2933E+02  0.1824E+03
    -14.754  0.2952E+02  0.1828E+03
    -14.740  0.2970E+02  0.1833E+03
    -14.725  0.2986E+02  0.1837E+03
    -14.710  0.3002E+02  0.1842E+03
    -14.695  0.3015E+02  0.1846E+03
    -14.681  0.3028E+02  0.1851E+03
    -14.666  0.3039E+02  0.1855E+03
    -14.651  0.3049E+02  0.1860E+03
    -14.636  0.3059E+02  0.1864E+03
    -14.621  0.3067E+02  0.1869E+03
    -14.607  0.3076E+02  0.1873E+03
    -14.592  0.3084E+02  0.1878E+03
    -14.577  0.3092E+02  0.1882E+03
    -14.562  0.3100E+02  0.1887E+03
    -14.548  0.3109E+02  0.1891E+03
    -14.533  0.3119E+02  0.1896E+03
    -14.518  0.3129E+02  0.1901E+03
    -14.503  0.3140E+02  0.1905E+03
    -14.488  0.3152E+02  0.1910E+03
    -14.474  0.3164E+02  0.1915E+03
    -14.459  0.3177E+02  0.1919E+03
    -14.444  0.3190E+02  0.1924E+03
    -14.429  0.3203E+02  0.1929E+03
    -14.415  0.3215E+02  0.1934E+03
    -14.400  0.3226E+02  0.1938E+03
    -14.385  0.3235E+02  0.1943E+03
    -14.370  0.3242E+02  0.1948E+03
    -14.355  0.3247E+02  0.1953E+03
    -14.341  0.3248E+02  0.1958E+03
    -14.326  0.3247E+02  0.1962E+03
    -14.311  0.3242E+02  0.1967E+03
    -14.296  0.3234E+02  0.1972E+03
    -14.282  0.3223E+02  0.1977E+03
    -14.267  0.3210E+02  0.1981E+03
    -14.252  0.3195E+02  0.1986E+03
    -14.237  0.3178E+02  0.1991E+03
    -14.222  0.3160E+02  0.1995E+03
    -14.208  0.3142E+02  0.2000E+03
    -14.193  0.3124E+02  0.2005E+03
    -14.178  0.3108E+02  0.2009E+03
    -14.163  0.3092E+02  0.2014E+03
    -14.149  0.3078E+02  0.2018E+03
    -14.134  0.3066E+02  0.2023E+03
    -14.119  0.3055E+02  0.2027E+03
    -14.104  0.3047E+02  0.2032E+03
    -14.089  0.3040E+02  0.2036E+03
    -14.075  0.3034E+02  0.2041E+03
    -14.060  0.3030E+02  0.2045E+03
    -14.045  0.3026E+02  0.2050E+03
    -14.030  0.3022E+02  0.2054E+03
    -14.016  0.3019E+02  0.2059E+03
    -14.001  0.3015E+02  0.2063E+03
    -13.986  0.3011E+02  0.2068E+03
    -13.971  0.3007E+02  0.2072E+03
    -13.956  0.3003E+02  0.2077E+03
    -13.942  0.2998E+02  0.2081E+03
    -13.927  0.2992E+02  0.2085E+03
    -13.912  0.2987E+02  0.2090E+03
    -13.897  0.2982E+02  0.2094E+03
    -13.883  0.2978E+02  0.2099E+03
    -13.868  0.2973E+02  0.2103E+03
    -13.853  0.2970E+02  0.2107E+03
    -13.838  0.2966E+02  0.2112E+03
    -13.823  0.2964E+02  0.2116E+03
    -13.809  0.2962E+02  0.2121E+03
    -13.794  0.2960E+02  0.2125E+03
    -13.779  0.2958E+02  0.2129E+03
    -13.764  0.2957E+02  0.2134E+03
    -13.750  0.2955E+02  0.2138E+03
    -13.735  0.2953E+02  0.2142E+03
    -13.720  0.2950E+02  0.2147E+03
    -13.705  0.2946E+02  0.2151E+03
    -13.690  0.2942E+02  0.2156E+03
    -13.676  0.2936E+02  0.2160E+03
    -13.661  0.2930E+02  0.2164E+03
    -13.646  0.2922E+02  0.2169E+03
    -13.631  0.2914E+02  0.2173E+03
    -13.617  0.2905E+02  0.2177E+03
    -13.602  0.2895E+02  0.2181E+03
    -13.587  0.2886E+02  0.2186E+03
    -13.572  0.2875E+02  0.2190E+03
    -13.557  0.2865E+02  0.2194E+03
    -13.543  0.2856E+02  0.2198E+03
    -13.528  0.2847E+02  0.2203E+03
    -13.513  0.2838E+02  0.2207E+03
    -13.498  0.2830E+02  0.2211E+03
    -13.484  0.2824E+02  0.2215E+03
    -13.469  0.2818E+02  0.2219E+03
    -13.454  0.2814E+02  0.2223E+03
    -13.439  0.2810E+02  0.2228E+03
    -13.425  0.2809E+02  0.2232E+03
    -13.410  0.2808E+02  0.2236E+03
    -13.395  0.2810E+02  0.2240E+03
    -13.380  0.2812E+02  0.2244E+03
    -13.365  0.2816E+02  0.2248E+03
    -13.351  0.2822E+02  0.2253E+03
    -13.336  0.2828E+02  0.2257E+03
    -13.321  0.2836E+02  0.2261E+03
    -13.306  0.2846E+02  0.2265E+03
    -13.292  0.2856E+02  0.2269E+03
    -13.277  0.2868E+02  0.2274E+03
    -13.262  0.2880E+02  0.2278E+03
    -13.247  0.2893E+02  0.2282E+03
    -13.232  0.2907E+02  0.2286E+03
    -13.218  0.2921E+02  0.2291E+03
    -13.203  0.2935E+02  0.2295E+03
    -13.188  0.2949E+02  0.2299E+03
    -13.173  0.2963E+02  0.2304E+03
    -13.159  0.2976E+02  0.2308E+03
    -13.144  0.2988E+02  0.2313E+03
    -13.129  0.2998E+02  0.2317E+03
    -13.114  0.3007E+02  0.2321E+03
    -13.099  0.3014E+02  0.2326E+03
    -13.085  0.3018E+02  0.2330E+03
    -13.070  0.3020E+02  0.2335E+03
    -13.055  0.3020E+02  0.2339E+03
    -13.040  0.3017E+02  0.2344E+03
    -13.026  0.3011E+02  0.2348E+03
    -13.011  0.3003E+02  0.2353E+03
    -12.996  0.2992E+02  0.2357E+03
    -12.981  0.2980E+02  0.2361E+03
    -12.966  0.2965E+02  0.2366E+03
    -12.952  0.2949E+02  0.2370E+03
    -12.937  0.2931E+02  0.2375E+03
    -12.922  0.2913E+02  0.2379E+03
    -12.907  0.2894E+02  0.2383E+03
    -12.893  0.2874E+02  0.2387E+03
    -12.878  0.2855E+02  0.2392E+03
    -12.863  0.2837E+02  0.2396E+03
    -12.848  0.2819E+02  0.2400E+03
    -12.833  0.2802E+02  0.2404E+03
    -12.819  0.2787E+02  0.2408E+03
    -12.804  0.2773E+02  0.2412E+03
    -12.789  0.2761E+02  0.2416E+03
    -12.774  0.2750E+02  0.2420E+03
    -12.760  0.2741E+02  0.2424E+03
    -12.745  0.2735E+02  0.2429E+03
    -12.730  0.2730E+02  0.2433E+03
    -12.715  0.2727E+02  0.2437E+03
    -12.700  0.2726E+02  0.2441E+03
    -12.686  0.2727E+02  0.2445E+03
    -12.671  0.2731E+02  0.2449E+03
    -12.656  0.2736E+02  0.2453E+03
    -12.641  0.2742E+02  0.2457E+03
    -12.627  0.2751E+02  0.2461E+03
    -12.612  0.2762E+02  0.2465E+03
    -12.597  0.2774E+02  0.2469E+03
    -12.582  0.2787E+02  0.2473E+03
    -12.567  0.2802E+02  0.2477E+03
    -12.553  0.2818E+02  0.2481E+03
    -12.538  0.2836E+02  0.2486E+03
    -12.523  0.2854E+02  0.2490E+03
    -12.508  0.2873E+02  0.2494E+03
    -12.494  0.2892E+02  0.2498E+03
    -12.479  0.2912E+02  0.2503E+03
    -12.464  0.2932E+02  0.2507E+03
    -12.449  0.2952E+02  0.2511E+03
    -12.434  0.2971E+02  0.2516E+03
    -12.420  0.2989E+02  0.2520E+03
    -12.405  0.3006E+02  0.2525E+03
    -12.390  0.3022E+02  0.2529E+03
    -12.375  0.3036E+02  0.2534E+03
    -12.361  0.3048E+02  0.2538E+03
    -12.346  0.3058E+02  0.2543E+03
    -12.331  0.3065E+02  0.2547E+03
    -12.316  0.3070E+02  0.2552E+03
    -12.301  0.3073E+02  0.2556E+03
    -12.287  0.3072E+02  0.2561E+03
    -12.272  0.3070E+02  0.2565E+03
    -12.257  0.3065E+02  0.2570E+03
    -12.242  0.3058E+02  0.2574E+03
    -12.228  0.3049E+02  0.2579E+03
    -12.213  0.3039E+02  0.2583E+03
    -12.198  0.3028E+02  0.2588E+03
    -12.183  0.3017E+02  0.2592E+03
    -12.169  0.3006E+02  0.2597E+03
    -12.154  0.2995E+02  0.2601E+03
    -12.139  0.2986E+02  0.2606E+03
    -12.124  0.2977E+02  0.2610E+03
    -12.109  0.2971E+02  0.2614E+03
    -12.095  0.2966E+02  0.2619E+03
    -12.080  0.2964E+02  0.2623E+03
    -12.065  0.2964E+02  0.2627E+03
    -12.050  0.2966E+02  0.2632E+03
    -12.036  0.2971E+02  0.2636E+03
    -12.021  0.2978E+02  0.2641E+03
    -12.006  0.2987E+02  0.2645E+03
    -11.991  0.2998E+02  0.2649E+03
    -11.976  0.3011E+02  0.2654E+03
    -11.962  0.3025E+02  0.2658E+03
    -11.947  0.3041E+02  0.2663E+03
    -11.932  0.3058E+02  0.2667E+03
    -11.917  0.3077E+02  0.2672E+03
    -11.903  0.3096E+02  0.2677E+03
    -11.888  0.3117E+02  0.2681E+03
    -11.873  0.3138E+02  0.2686E+03
    -11.858  0.3160E+02  0.2690E+03
    -11.843  0.3182E+02  0.2695E+03
    -11.829  0.3205E+02  0.2700E+03
    -11.814  0.3228E+02  0.2705E+03
    -11.799  0.3251E+02  0.2709E+03