 209 209   0   0
  0.6024834E+02  0.2912318E-08  0.2161835E-08  0.2000000E-08  0.5000000E-15
  1.000000000000000E-004
  CAR 
 unknown system                          
      2.85318275    -24.65996819 2000     -4.19072046      1.00000000
    -24.660  0.0000E+00  0.0000E+00
    -24.646  0.0000E+00  0.0000E+00
    -24.632  0.0000E+00  0.0000E+00
    -24.619  0.0000E+00  0.0000E+00
    -24.605  0.0000E+00  0.0000E+00
    -24.591  0.0000E+00  0.0000E+00
    -24.577  0.0000E+00  0.0000E+00
    -24.564  0.0000E+00  0.0000E+00
    -24.550  0.0000E+00  0.0000E+00
    -24.536  0.0000E+00  0.0000E+00
    -24.522  0.0000E+00  0.0000E+00
    -24.509  0.0000E+00  0.0000E+00
    -24.495  0.0000E+00  0.0000E+00
    -24.481  0.0000E+00  0.0000E+00
    -24.467  0.0000E+00  0.0000E+00
    -24.454  0.0000E+00  0.0000E+00
    -24.440  0.0000E+00  0.0000E+00
    -24.426  0.0000E+00  0.0000E+00
    -24.412  0.0000E+00  0.0000E+00
    -24.398  0.0000E+00  0.0000E+00
    -24.385  0.0000E+00  0.0000E+00
    -24.371  0.0000E+00  0.0000E+00
    -24.357  0.0000E+00  0.0000E+00
    -24.343  0.0000E+00  0.0000E+00
    -24.330  0.0000E+00  0.0000E+00
    -24.316  0.0000E+00  0.0000E+00
    -24.302  0.0000E+00  0.0000E+00
    -24.288  0.0000E+00  0.0000E+00
    -24.275  0.0000E+00  0.0000E+00
    -24.261  0.0000E+00  0.0000E+00
    -24.247  0.0000E+00  0.0000E+00
    -24.233  0.0000E+00  0.0000E+00
    -24.220  0.0000E+00  0.0000E+00
    -24.206  0.0000E+00  0.0000E+00
    -24.192  0.0000E+00  0.0000E+00
    -24.178  0.0000E+00  0.0000E+00
    -24.164  0.0000E+00  0.0000E+00
    -24.151  0.0000E+00  0.0000E+00
    -24.137  0.0000E+00  0.0000E+00
    -24.123  0.0000E+00  0.0000E+00
    -24.109  0.0000E+00  0.0000E+00
    -24.096  0.0000E+00  0.0000E+00
    -24.082  0.0000E+00  0.0000E+00
    -24.068  0.0000E+00  0.0000E+00
    -24.054  0.0000E+00  0.0000E+00
    -24.041  0.0000E+00  0.0000E+00
    -24.027  0.0000E+00  0.0000E+00
    -24.013  0.0000E+00  0.0000E+00
    -23.999  0.0000E+00  0.0000E+00
    -23.986  0.0000E+00  0.0000E+00
    -23.972  0.0000E+00  0.0000E+00
    -23.958  0.0000E+00  0.0000E+00
    -23.944  0.0000E+00  0.0000E+00
    -23.931  0.0000E+00  0.0000E+00
    -23.917  0.0000E+00  0.0000E+00
    -23.903  0.0000E+00  0.0000E+00
    -23.889  0.0000E+00  0.0000E+00
    -23.875  0.0000E+00  0.0000E+00
    -23.862  0.0000E+00  0.0000E+00
    -23.848  0.0000E+00  0.0000E+00
    -23.834  0.8066E-14  0.1110E-15
    -23.820  0.8066E-14  0.2220E-15
    -23.807  0.1882E-13  0.4811E-15
    -23.793  0.4840E-13  0.1147E-14
    -23.779  0.9680E-13  0.2479E-14
    -23.765  0.2097E-12  0.5366E-14
    -23.752  0.4553E-12  0.1163E-13
    -23.738  0.9644E-12  0.2491E-13
    -23.724  0.2028E-11  0.5282E-13
    -23.710  0.4239E-11  0.1112E-12
    -23.697  0.8771E-11  0.2319E-12
    -23.683  0.1795E-10  0.4789E-12
    -23.669  0.3643E-10  0.9804E-12
    -23.655  0.7323E-10  0.1988E-11
    -23.641  0.1458E-09  0.3995E-11
    -23.628  0.2876E-09  0.7954E-11
    -23.614  0.5621E-09  0.1569E-10
    -23.600  0.1088E-08  0.3067E-10
    -23.586  0.2087E-08  0.5940E-10
    -23.573  0.3966E-08  0.1140E-09
    -23.559  0.7467E-08  0.2168E-09
    -23.545  0.1392E-07  0.4084E-09
    -23.531  0.2573E-07  0.7625E-09
    -23.518  0.4709E-07  0.1411E-08
    -23.504  0.8539E-07  0.2586E-08
    -23.490  0.1534E-06  0.4697E-08
    -23.476  0.2730E-06  0.8455E-08
    -23.463  0.4814E-06  0.1508E-07
    -23.449  0.8409E-06  0.2665E-07
    -23.435  0.1455E-05  0.4668E-07
    -23.421  0.2495E-05  0.8103E-07
    -23.407  0.4238E-05  0.1394E-06
    -23.394  0.7133E-05  0.2375E-06
    -23.380  0.1189E-04  0.4012E-06
    -23.366  0.1965E-04  0.6716E-06
    -23.352  0.3215E-04  0.1114E-05
    -23.339  0.5213E-04  0.1832E-05
    -23.325  0.8375E-04  0.2984E-05
    -23.311  0.1333E-03  0.4819E-05
    -23.297  0.2102E-03  0.7712E-05
    -23.284  0.3284E-03  0.1223E-04
    -23.270  0.5084E-03  0.1923E-04
    -23.256  0.7798E-03  0.2996E-04
    -23.242  0.1185E-02  0.4627E-04
    -23.229  0.1784E-02  0.7083E-04
    -23.215  0.2662E-02  0.1075E-03
    -23.201  0.3935E-02  0.1616E-03
    -23.187  0.5763E-02  0.2409E-03
    -23.174  0.8363E-02  0.3560E-03
    -23.160  0.1203E-01  0.5216E-03
    -23.146  0.1713E-01  0.7574E-03
    -23.132  0.2419E-01  0.1090E-02
    -23.118  0.3384E-01  0.1556E-02
    -23.105  0.4692E-01  0.2202E-02
    -23.091  0.6445E-01  0.3089E-02
    -23.077  0.8773E-01  0.4296E-02
    -23.063  0.1183E+00  0.5925E-02
    -23.050  0.1582E+00  0.8103E-02
    -23.036  0.2096E+00  0.1099E-01
    -23.022  0.2752E+00  0.1477E-01
    -23.008  0.3580E+00  0.1970E-01
    -22.995  0.4617E+00  0.2606E-01
    -22.981  0.5900E+00  0.3418E-01
    -22.967  0.7474E+00  0.4446E-01
    -22.953  0.9383E+00  0.5738E-01
    -22.940  0.1168E+01  0.7345E-01
    -22.926  0.1440E+01  0.9327E-01
    -22.912  0.1761E+01  0.1175E+00
    -22.898  0.2135E+01  0.1469E+00
    -22.884  0.2565E+01  0.1822E+00
    -22.871  0.3055E+01  0.2242E+00
    -22.857  0.3609E+01  0.2739E+00
    -22.843  0.4226E+01  0.3321E+00
    -22.829  0.4907E+01  0.3996E+00
    -22.816  0.5649E+01  0.4774E+00
    -22.802  0.6451E+01  0.5661E+00
    -22.788  0.7305E+01  0.6667E+00
    -22.774  0.8205E+01  0.7796E+00
    -22.761  0.9141E+01  0.9054E+00
    -22.747  0.1010E+02  0.1044E+01
    -22.733  0.1108E+02  0.1197E+01
    -22.719  0.1205E+02  0.1363E+01
    -22.706  0.1301E+02  0.1542E+01
    -22.692  0.1395E+02  0.1734E+01
    -22.678  0.1483E+02  0.1938E+01
    -22.664  0.1566E+02  0.2154E+01
    -22.651  0.1642E+02  0.2380E+01
    -22.637  0.1710E+02  0.2615E+01
    -22.623  0.1768E+02  0.2858E+01
    -22.609  0.1817E+02  0.3108E+01
    -22.595  0.1855E+02  0.3364E+01
    -22.582  0.1882E+02  0.3623E+01
    -22.568  0.1898E+02  0.3884E+01
    -22.554  0.1904E+02  0.4146E+01
    -22.540  0.1899E+02  0.4407E+01
    -22.527  0.1886E+02  0.4667E+01
    -22.513  0.1863E+02  0.4923E+01
    -22.499  0.1833E+02  0.5176E+01
    -22.485  0.1797E+02  0.5423E+01
    -22.472  0.1755E+02  0.5665E+01
    -22.458  0.1710E+02  0.5900E+01
    -22.444  0.1662E+02  0.6129E+01
    -22.430  0.1613E+02  0.6351E+01
    -22.417  0.1565E+02  0.6566E+01
    -22.403  0.1517E+02  0.6775E+01
    -22.389  0.1473E+02  0.6978E+01
    -22.375  0.1432E+02  0.7175E+01
    -22.361  0.1396E+02  0.7367E+01
    -22.348  0.1366E+02  0.7555E+01
    -22.334  0.1342E+02  0.7740E+01
    -22.320  0.1326E+02  0.7922E+01
    -22.306  0.1317E+02  0.8103E+01
    -22.293  0.1317E+02  0.8285E+01
    -22.279  0.1325E+02  0.8467E+01
    -22.265  0.1342E+02  0.8652E+01
    -22.251  0.1368E+02  0.8840E+01
    -22.238  0.1403E+02  0.9033E+01
    -22.224  0.1446E+02  0.9232E+01
    -22.210  0.1499E+02  0.9438E+01
    -22.196  0.1559E+02  0.9653E+01
    -22.183  0.1628E+02  0.9877E+01
    -22.169  0.1703E+02  0.1011E+02
    -22.155  0.1786E+02  0.1036E+02
    -22.141  0.1874E+02  0.1062E+02
    -22.127  0.1968E+02  0.1089E+02
    -22.114  0.2066E+02  0.1117E+02
    -22.100  0.2167E+02  0.1147E+02
    -22.086  0.2271E+02  0.1178E+02
    -22.072  0.2375E+02  0.1211E+02
    -22.059  0.2480E+02  0.1245E+02
    -22.045  0.2584E+02  0.1281E+02
    -22.031  0.2685E+02  0.1317E+02
    -22.017  0.2784E+02  0.1356E+02
    -22.004  0.2878E+02  0.1395E+02
    -21.990  0.2966E+02  0.1436E+02
    -21.976  0.3049E+02  0.1478E+02
    -21.962  0.3124E+02  0.1521E+02
    -21.949  0.3192E+02  0.1565E+02
    -21.935  0.3252E+02  0.1610E+02
    -21.921  0.3303E+02  0.1655E+02
    -21.907  0.3345E+02  0.1701E+02
    -21.894  0.3378E+02  0.1748E+02
    -21.880  0.3402E+02  0.1795E+02
    -21.866  0.3418E+02  0.1842E+02
    -21.852  0.3426E+02  0.1889E+02
    -21.838  0.3427E+02  0.1936E+02
    -21.825  0.3422E+02  0.1983E+02
    -21.811  0.3410E+02  0.2030E+02
    -21.797  0.3395E+02  0.2077E+02
    -21.783  0.3376E+02  0.2123E+02
    -21.770  0.3355E+02  0.2169E+02
    -21.756  0.3333E+02  0.2215E+02
    -21.742  0.3311E+02  0.2261E+02
    -21.728  0.3291E+02  0.2306E+02
    -21.715  0.3273E+02  0.2351E+02
    -21.701  0.3258E+02  0.2396E+02
    -21.687  0.3247E+02  0.2441E+02
    -21.673  0.3241E+02  0.2485E+02
    -21.660  0.3238E+02  0.2530E+02
    -21.646  0.3241E+02  0.2575E+02
    -21.632  0.3248E+02  0.2619E+02
    -21.618  0.3259E+02  0.2664E+02
    -21.604  0.3274E+02  0.2709E+02
    -21.591  0.3291E+02  0.2754E+02
    -21.577  0.3311E+02  0.2800E+02
    -21.563  0.3332E+02  0.2846E+02
    -21.549  0.3353E+02  0.2892E+02
    -21.536  0.3374E+02  0.2938E+02
    -21.522  0.3393E+02  0.2985E+02
    -21.508  0.3410E+02  0.3032E+02
    -21.494  0.3424E+02  0.3079E+02
    -21.481  0.3433E+02  0.3127E+02
    -21.467  0.3438E+02  0.3174E+02
    -21.453  0.3438E+02  0.3221E+02
    -21.439  0.3432E+02  0.3268E+02
    -21.426  0.3420E+02  0.3315E+02
    -21.412  0.3402E+02  0.3362E+02
    -21.398  0.3379E+02  0.3409E+02
    -21.384  0.3349E+02  0.3455E+02
    -21.371  0.3314E+02  0.3500E+02
    -21.357  0.3273E+02  0.3546E+02
    -21.343  0.3228E+02  0.3590E+02
    -21.329  0.3179E+02  0.3634E+02
    -21.315  0.3126E+02  0.3677E+02
    -21.302  0.3072E+02  0.3719E+02
    -21.288  0.3016E+02  0.3761E+02
    -21.274  0.2961E+02  0.3801E+02
    -21.260  0.2906E+02  0.3841E+02
    -21.247  0.2855E+02  0.3881E+02
    -21.233  0.2807E+02  0.3919E+02
    -21.219  0.2764E+02  0.3957E+02
    -21.205  0.2728E+02  0.3995E+02
    -21.192  0.2698E+02  0.4032E+02
    -21.178  0.2677E+02  0.4069E+02
    -21.164  0.2664E+02  0.4105E+02
    -21.150  0.2660E+02  0.4142E+02
    -21.137  0.2665E+02  0.4179E+02
    -21.123  0.2679E+02  0.4216E+02
    -21.109  0.2701E+02  0.4253E+02
    -21.095  0.2730E+02  0.4290E+02
    -21.081  0.2765E+02  0.4328E+02
    -21.068  0.2805E+02  0.4367E+02
    -21.054  0.2849E+02  0.4406E+02
    -21.040  0.2893E+02  0.4446E+02
    -21.026  0.2937E+02  0.4486E+02
    -21.013  0.2979E+02  0.4527E+02
    -20.999  0.3018E+02  0.4569E+02
    -20.985  0.3051E+02  0.4611E+02
    -20.971  0.3077E+02  0.4653E+02
    -20.958  0.3096E+02  0.4696E+02
    -20.944  0.3107E+02  0.4739E+02
    -20.930  0.3109E+02  0.4782E+02
    -20.916  0.3103E+02  0.4824E+02
    -20.903  0.3088E+02  0.4867E+02
    -20.889  0.3066E+02  0.4909E+02
    -20.875  0.3038E+02  0.4951E+02
    -20.861  0.3004E+02  0.4992E+02
    -20.847  0.2967E+02  0.5033E+02
    -20.834  0.2927E+02  0.5073E+02
    -20.820  0.2886E+02  0.5113E+02
    -20.806  0.2846E+02  0.5152E+02
    -20.792  0.2808E+02  0.5191E+02
    -20.779  0.2773E+02  0.5229E+02
    -20.765  0.2742E+02  0.5267E+02
    -20.751  0.2716E+02  0.5304E+02
    -20.737  0.2696E+02  0.5341E+02
    -20.724  0.2682E+02  0.5378E+02
    -20.710  0.2675E+02  0.5415E+02
    -20.696  0.2672E+02  0.5452E+02
    -20.682  0.2676E+02  0.5488E+02
    -20.669  0.2684E+02  0.5525E+02
    -20.655  0.2696E+02  0.5563E+02
    -20.641  0.2712E+02  0.5600E+02
    -20.627  0.2731E+02  0.5637E+02
    -20.614  0.2751E+02  0.5675E+02
    -20.600  0.2772E+02  0.5713E+02
    -20.586  0.2794E+02  0.5752E+02
    -20.572  0.2815E+02  0.5791E+02
    -20.558  0.2836E+02  0.5830E+02
    -20.545  0.2856E+02  0.5869E+02
    -20.531  0.2875E+02  0.5909E+02
    -20.517  0.2893E+02  0.5948E+02
    -20.503  0.2911E+02  0.5988E+02
    -20.490  0.2928E+02  0.6029E+02
    -20.476  0.2946E+02  0.6069E+02
    -20.462  0.2964E+02  0.6110E+02
    -20.448  0.2983E+02  0.6151E+02
    -20.435  0.3004E+02  0.6193E+02
    -20.421  0.3026E+02  0.6234E+02
    -20.407  0.3051E+02  0.6276E+02
    -20.393  0.3077E+02  0.6319E+02
    -20.380  0.3105E+02  0.6361E+02
    -20.366  0.3135E+02  0.6404E+02
    -20.352  0.3167E+02  0.6448E+02
    -20.338  0.3199E+02  0.6492E+02
    -20.324  0.3232E+02  0.6536E+02
    -20.311  0.3264E+02  0.6581E+02
    -20.297  0.3295E+02  0.6627E+02
    -20.283  0.3325E+02  0.6673E+02
    -20.269  0.3352E+02  0.6719E+02
    -20.256  0.3376E+02  0.6765E+02
    -20.242  0.3396E+02  0.6812E+02
    -20.228  0.3413E+02  0.6859E+02
    -20.214  0.3424E+02  0.6906E+02
    -20.201  0.3431E+02  0.6953E+02
    -20.187  0.3433E+02  0.7000E+02
    -20.173  0.3430E+02  0.7048E+02
    -20.159  0.3422E+02  0.7095E+02
    -20.146  0.3410E+02  0.7142E+02
    -20.132  0.3394E+02  0.7188E+02
    -20.118  0.3374E+02  0.7235E+02
    -20.104  0.3351E+02  0.7281E+02
    -20.091  0.3327E+02  0.7327E+02
    -20.077  0.3300E+02  0.7372E+02
    -20.063  0.3273E+02  0.7417E+02
    -20.049  0.3246E+02  0.7462E+02
    -20.035  0.3219E+02  0.7506E+02
    -20.022  0.3193E+02  0.7550E+02
    -20.008  0.3169E+02  0.7594E+02
    -19.994  0.3146E+02  0.7637E+02
    -19.980  0.3126E+02  0.7680E+02
    -19.967  0.3108E+02  0.7723E+02
    -19.953  0.3093E+02  0.7765E+02
    -19.939  0.3079E+02  0.7808E+02
    -19.925  0.3068E+02  0.7850E+02
    -19.912  0.3058E+02  0.7892E+02
    -19.898  0.3050E+02  0.7934E+02
    -19.884  0.3044E+02  0.7976E+02
    -19.870  0.3038E+02  0.8018E+02
    -19.857  0.3033E+02  0.8060E+02
    -19.843  0.3028E+02  0.8101E+02
    -19.829  0.3024E+02  0.8143E+02
    -19.815  0.3020E+02  0.8184E+02
    -19.801  0.3017E+02  0.8226E+02
    -19.788  0.3015E+02  0.8267E+02
    -19.774  0.3015E+02  0.8309E+02
    -19.760  0.3016E+02  0.8350E+02
    -19.746  0.3019E+02  0.8392E+02
    -19.733  0.3025E+02  0.8434E+02
    -19.719  0.3035E+02  0.8475E+02
    -19.705  0.3049E+02  0.8517E+02
    -19.691  0.3067E+02  0.8560E+02
    -19.678  0.3090E+02  0.8602E+02
    -19.664  0.3118E+02  0.8645E+02
    -19.650  0.3151E+02  0.8688E+02
    -19.636  0.3189E+02  0.8732E+02
    -19.623  0.3232E+02  0.8777E+02
    -19.609  0.3280E+02  0.8822E+02
    -19.595  0.3332E+02  0.8868E+02
    -19.581  0.3386E+02  0.8914E+02
    -19.567  0.3443E+02  0.8962E+02
    -19.554  0.3501E+02  0.9010E+02
    -19.540  0.3559E+02  0.9059E+02
    -19.526  0.3615E+02  0.9109E+02
    -19.512  0.3668E+02  0.9159E+02
    -19.499  0.3718E+02  0.9210E+02
    -19.485  0.3762E+02  0.9262E+02
    -19.471  0.3801E+02  0.9314E+02
    -19.457  0.3832E+02  0.9367E+02
    -19.444  0.3855E+02  0.9420E+02
    -19.430  0.3869E+02  0.9473E+02
    -19.416  0.3875E+02  0.9527E+02
    -19.402  0.3872E+02  0.9580E+02
    -19.389  0.3860E+02  0.9633E+02
    -19.375  0.3841E+02  0.9686E+02
    -19.361  0.3813E+02  0.9739E+02
    -19.347  0.3779E+02  0.9791E+02
    -19.334  0.3740E+02  0.9842E+02
    -19.320  0.3696E+02  0.9893E+02
    -19.306  0.3650E+02  0.9943E+02
    -19.292  0.3602E+02  0.9993E+02
    -19.278  0.3554E+02  0.1004E+03
    -19.265  0.3508E+02  0.1009E+03
    -19.251  0.3464E+02  0.1014E+03
    -19.237  0.3424E+02  0.1018E+03
    -19.223  0.3389E+02  0.1023E+03
    -19.210  0.3360E+02  0.1028E+03
    -19.196  0.3337E+02  0.1032E+03
    -19.182  0.3321E+02  0.1037E+03
    -19.168  0.3312E+02  0.1041E+03
    -19.155  0.3310E+02  0.1046E+03
    -19.141  0.3315E+02  0.1051E+03
    -19.127  0.3327E+02  0.1055E+03
    -19.113  0.3346E+02  0.1060E+03
    -19.100  0.3370E+02  0.1064E+03
    -19.086  0.3400E+02  0.1069E+03
    -19.072  0.3434E+02  0.1074E+03
    -19.058  0.3472E+02  0.1079E+03
    -19.044  0.3513E+02  0.1083E+03
    -19.031  0.3556E+02  0.1088E+03
    -19.017  0.3601E+02  0.1093E+03
    -19.003  0.3646E+02  0.1098E+03
    -18.989  0.3692E+02  0.1103E+03
    -18.976  0.3738E+02  0.1109E+03
    -18.962  0.3782E+02  0.1114E+03
    -18.948  0.3825E+02  0.1119E+03
    -18.934  0.3866E+02  0.1124E+03
    -18.921  0.3904E+02  0.1130E+03
    -18.907  0.3939E+02  0.1135E+03
    -18.893  0.3971E+02  0.1141E+03
    -18.879  0.3999E+02  0.1146E+03
    -18.866  0.4023E+02  0.1152E+03
    -18.852  0.4043E+02  0.1157E+03
    -18.838  0.4060E+02  0.1163E+03
    -18.824  0.4072E+02  0.1168E+03
    -18.810  0.4080E+02  0.1174E+03
    -18.797  0.4084E+02  0.1180E+03
    -18.783  0.4086E+02  0.1185E+03
    -18.769  0.4084E+02  0.1191E+03
    -18.755  0.4080E+02  0.1196E+03
    -18.742  0.4074E+02  0.1202E+03
    -18.728  0.4067E+02  0.1208E+03
    -18.714  0.4060E+02  0.1213E+03
    -18.700  0.4052E+02  0.1219E+03
    -18.687  0.4044E+02  0.1224E+03
    -18.673  0.4037E+02  0.1230E+03
    -18.659  0.4031E+02  0.1236E+03
    -18.645  0.4027E+02  0.1241E+03
    -18.632  0.4024E+02  0.1247E+03
    -18.618  0.4022E+02  0.1252E+03
    -18.604  0.4022E+02  0.1258E+03
    -18.590  0.4023E+02  0.1263E+03
    -18.577  0.4026E+02  0.1269E+03
    -18.563  0.4028E+02  0.1274E+03
    -18.549  0.4032E+02  0.1280E+03
    -18.535  0.4036E+02  0.1285E+03
    -18.521  0.4039E+02  0.1291E+03
    -18.508  0.4042E+02  0.1297E+03
    -18.494  0.4045E+02  0.1302E+03
    -18.480  0.4047E+02  0.1308E+03
    -18.466  0.4048E+02  0.1313E+03
    -18.453  0.4048E+02  0.1319E+03
    -18.439  0.4048E+02  0.1324E+03
    -18.425  0.4047E+02  0.1330E+03
    -18.411  0.4045E+02  0.1336E+03
    -18.398  0.4042E+02  0.1341E+03
    -18.384  0.4040E+02  0.1347E+03
    -18.370  0.4037E+02  0.1352E+03
    -18.356  0.4033E+02  0.1358E+03
    -18.343  0.4029E+02  0.1363E+03
    -18.329  0.4025E+02  0.1369E+03
    -18.315  0.4021E+02  0.1374E+03
    -18.301  0.4016E+02  0.1380E+03
    -18.287  0.4010E+02  0.1385E+03
    -18.274  0.4003E+02  0.1391E+03
    -18.260  0.3996E+02  0.1396E+03
    -18.246  0.3986E+02  0.1402E+03
    -18.232  0.3976E+02  0.1407E+03
    -18.219  0.3963E+02  0.1413E+03
    -18.205  0.3948E+02  0.1418E+03
    -18.191  0.3931E+02  0.1424E+03
    -18.177  0.3911E+02  0.1429E+03
    -18.164  0.3889E+02  0.1434E+03
    -18.150  0.3864E+02  0.1440E+03
    -18.136  0.3838E+02  0.1445E+03
    -18.122  0.3809E+02  0.1450E+03
    -18.109  0.3779E+02  0.1455E+03
    -18.095  0.3747E+02  0.1461E+03
    -18.081  0.3714E+02  0.1466E+03
    -18.067  0.3681E+02  0.1471E+03
    -18.054  0.3648E+02  0.1476E+03
    -18.040  0.3616E+02  0.1481E+03
    -18.026  0.3585E+02  0.1486E+03
    -18.012  0.3556E+02  0.1491E+03
    -17.998  0.3529E+02  0.1495E+03
    -17.985  0.3505E+02  0.1500E+03
    -17.971  0.3483E+02  0.1505E+03
    -17.957  0.3465E+02  0.1510E+03
    -17.943  0.3451E+02  0.1515E+03
    -17.930  0.3440E+02  0.1519E+03
    -17.916  0.3432E+02  0.1524E+03
    -17.902  0.3427E+02  0.1529E+03
    -17.888  0.3425E+02  0.1534E+03
    -17.875  0.3425E+02  0.1538E+03
    -17.861  0.3428E+02  0.1543E+03
    -17.847  0.3431E+02  0.1548E+03
    -17.833  0.3436E+02  0.1552E+03
    -17.820  0.3441E+02  0.1557E+03
    -17.806  0.3446E+02  0.1562E+03
    -17.792  0.3450E+02  0.1567E+03
    -17.778  0.3453E+02  0.1571E+03
    -17.764  0.3453E+02  0.1576E+03
    -17.751  0.3452E+02  0.1581E+03
    -17.737  0.3448E+02  0.1586E+03
    -17.723  0.3441E+02  0.1590E+03
    -17.709  0.3432E+02  0.1595E+03
    -17.696  0.3419E+02  0.1600E+03
    -17.682  0.3404E+02  0.1604E+03
    -17.668  0.3386E+02  0.1609E+03
    -17.654  0.3365E+02  0.1614E+03
    -17.641  0.3342E+02  0.1618E+03
    -17.627  0.3317E+02  0.1623E+03
    -17.613  0.3291E+02  0.1627E+03
    -17.599  0.3263E+02  0.1632E+03
    -17.586  0.3236E+02  0.1636E+03
    -17.572  0.3208E+02  0.1641E+03
    -17.558  0.3181E+02  0.1645E+03
    -17.544  0.3156E+02  0.1650E+03
    -17.530  0.3132E+02  0.1654E+03
    -17.517  0.3111E+02  0.1658E+03
    -17.503  0.3093E+02  0.1662E+03
    -17.489  0.3078E+02  0.1667E+03
    -17.475  0.3067E+02  0.1671E+03
    -17.462  0.3061E+02  0.1675E+03
    -17.448  0.3058E+02  0.1679E+03
    -17.434  0.3060E+02  0.1683E+03
    -17.420  0.3066E+02  0.1688E+03
    -17.407  0.3077E+02  0.1692E+03
    -17.393  0.3091E+02  0.1696E+03
    -17.379  0.3109E+02  0.1700E+03
    -17.365  0.3130E+02  0.1705E+03
    -17.352  0.3154E+02  0.1709E+03
    -17.338  0.3179E+02  0.1713E+03
    -17.324  0.3206E+02  0.1718E+03
    -17.310  0.3233E+02  0.1722E+03
    -17.297  0.3260E+02  0.1727E+03
    -17.283  0.3286E+02  0.1731E+03
    -17.269  0.3310E+02  0.1736E+03
    -17.255  0.3333E+02  0.1741E+03
    -17.241  0.3352E+02  0.1745E+03
    -17.228  0.3369E+02  0.1750E+03
    -17.214  0.3381E+02  0.1754E+03
    -17.200  0.3390E+02  0.1759E+03
    -17.186  0.3395E+02  0.1764E+03
    -17.173  0.3396E+02  0.1768E+03
    -17.159  0.3393E+02  0.1773E+03
    -17.145  0.3385E+02  0.1778E+03
    -17.131  0.3374E+02  0.1782E+03
    -17.118  0.3358E+02  0.1787E+03
    -17.104  0.3340E+02  0.1792E+03
    -17.090  0.3318E+02  0.1796E+03
    -17.076  0.3293E+02  0.1801E+03
    -17.063  0.3266E+02  0.1805E+03
    -17.049  0.3237E+02  0.1810E+03
    -17.035  0.3206E+02  0.1814E+03
    -17.021  0.3175E+02  0.1818E+03
    -17.007  0.3143E+02  0.1823E+03
    -16.994  0.3111E+02  0.1827E+03
    -16.980  0.3080E+02  0.1831E+03
    -16.966  0.3050E+02  0.1835E+03
    -16.952  0.3022E+02  0.1840E+03
    -16.939  0.2995E+02  0.1844E+03
    -16.925  0.2971E+02  0.1848E+03
    -16.911  0.2950E+02  0.1852E+03
    -16.897  0.2931E+02  0.1856E+03
    -16.884  0.2915E+02  0.1860E+03
    -16.870  0.2902E+02  0.1864E+03
    -16.856  0.2892E+02  0.1868E+03
    -16.842  0.2884E+02  0.1872E+03
    -16.829  0.2879E+02  0.1876E+03
    -16.815  0.2875E+02  0.1880E+03
    -16.801  0.2872E+02  0.1884E+03
    -16.787  0.2870E+02  0.1888E+03
    -16.774  0.2868E+02  0.1892E+03
    -16.760  0.2866E+02  0.1896E+03
    -16.746  0.2864E+02  0.1900E+03
    -16.732  0.2860E+02  0.1903E+03
    -16.718  0.2857E+02  0.1907E+03
    -16.705  0.2852E+02  0.1911E+03
    -16.691  0.2846E+02  0.1915E+03
    -16.677  0.2841E+02  0.1919E+03
    -16.663  0.2835E+02  0.1923E+03
    -16.650  0.2830E+02  0.1927E+03
    -16.636  0.2826E+02  0.1931E+03
    -16.622  0.2824E+02  0.1935E+03
    -16.608  0.2824E+02  0.1939E+03
    -16.595  0.2826E+02  0.1943E+03
    -16.581  0.2833E+02  0.1946E+03
    -16.567  0.2842E+02  0.1950E+03
    -16.553  0.2856E+02  0.1954E+03
    -16.540  0.2874E+02  0.1958E+03
    -16.526  0.2896E+02  0.1962E+03
    -16.512  0.2921E+02  0.1966E+03
    -16.498  0.2949E+02  0.1970E+03
    -16.484  0.2981E+02  0.1974E+03
    -16.471  0.3014E+02  0.1979E+03
    -16.457  0.3048E+02  0.1983E+03
    -16.443  0.3084E+02  0.1987E+03
    -16.429  0.3119E+02  0.1991E+03
    -16.416  0.3153E+02  0.1996E+03
    -16.402  0.3187E+02  0.2000E+03
    -16.388  0.3218E+02  0.2004E+03
    -16.374  0.3247E+02  0.2009E+03
    -16.361  0.3274E+02  0.2013E+03
    -16.347  0.3298E+02  0.2018E+03
    -16.333  0.3321E+02  0.2023E+03
    -16.319  0.3341E+02  0.2027E+03
    -16.306  0.3359E+02  0.2032E+03
    -16.292  0.3377E+02  0.2036E+03
    -16.278  0.3393E+02  0.2041E+03
    -16.264  0.3410E+02  0.2046E+03
    -16.250  0.3426E+02  0.2050E+03
    -16.237  0.3443E+02  0.2055E+03
    -16.223  0.3461E+02  0.2060E+03
    -16.209  0.3480E+02  0.2065E+03
    -16.195  0.3501E+02  0.2070E+03
    -16.182  0.3522E+02  0.2074E+03
    -16.168  0.3544E+02  0.2079E+03
    -16.154  0.3567E+02  0.2084E+03
    -16.140  0.3589E+02  0.2089E+03
    -16.127  0.3611E+02  0.2094E+03
    -16.113  0.3632E+02  0.2099E+03
    -16.099  0.3651E+02  0.2104E+03
    -16.085  0.3667E+02  0.2109E+03
    -16.072  0.3679E+02  0.2114E+03
    -16.058  0.3688E+02  0.2119E+03
    -16.044  0.3692E+02  0.2124E+03
    -16.030  0.3691E+02  0.2129E+03
    -16.017  0.3685E+02  0.2135E+03
    -16.003  0.3673E+02  0.2140E+03
    -15.989  0.3656E+02  0.2145E+03
    -15.975  0.3634E+02  0.2150E+03
    -15.961  0.3608E+02  0.2155E+03
    -15.948  0.3576E+02  0.2160E+03
    -15.934  0.3541E+02  0.2164E+03
    -15.920  0.3504E+02  0.2169E+03
    -15.906  0.3464E+02  0.2174E+03
    -15.893  0.3423E+02  0.2179E+03
    -15.879  0.3382E+02  0.2183E+03
    -15.865  0.3342E+02  0.2188E+03
    -15.851  0.3304E+02  0.2193E+03
    -15.838  0.3268E+02  0.2197E+03
    -15.824  0.3237E+02  0.2201E+03
    -15.810  0.3210E+02  0.2206E+03
    -15.796  0.3189E+02  0.2210E+03
    -15.783  0.3173E+02  0.2215E+03
    -15.769  0.3163E+02  0.2219E+03
    -15.755  0.3160E+02  0.2223E+03
    -15.741  0.3162E+02  0.2228E+03
    -15.727  0.3170E+02  0.2232E+03
    -15.714  0.3184E+02  0.2236E+03
    -15.700  0.3203E+02  0.2241E+03
    -15.686  0.3226E+02  0.2245E+03
    -15.672  0.3252E+02  0.2250E+03
    -15.659  0.3281E+02  0.2254E+03
    -15.645  0.3311E+02  0.2259E+03
    -15.631  0.3343E+02  0.2263E+03
    -15.617  0.3375E+02  0.2268E+03
    -15.604  0.3406E+02  0.2273E+03
    -15.590  0.3437E+02  0.2278E+03
    -15.576  0.3465E+02  0.2282E+03
    -15.562  0.3491E+02  0.2287E+03
    -15.549  0.3515E+02  0.2292E+03
    -15.535  0.3536E+02  0.2297E+03
    -15.521  0.3554E+02  0.2302E+03
    -15.507  0.3570E+02  0.2307E+03
    -15.494  0.3582E+02  0.2312E+03
    -15.480  0.3591E+02  0.2316E+03
    -15.466  0.3598E+02  0.2321E+03
    -15.452  0.3601E+02  0.2326E+03
    -15.438  0.3602E+02  0.2331E+03
    -15.425  0.3601E+02  0.2336E+03
    -15.411  0.3597E+02  0.2341E+03
    -15.397  0.3591E+02  0.2346E+03
    -15.383  0.3583E+02  0.2351E+03
    -15.370  0.3573E+02  0.2356E+03
    -15.356  0.3562E+02  0.2361E+03
    -15.342  0.3549E+02  0.2366E+03
    -15.328  0.3536E+02  0.2371E+03
    -15.315  0.3521E+02  0.2376E+03
    -15.301  0.3507E+02  0.2380E+03
    -15.287  0.3492E+02  0.2385E+03
    -15.273  0.3478E+02  0.2390E+03
    -15.260  0.3463E+02  0.2395E+03
    -15.246  0.3450E+02  0.2399E+03
    -15.232  0.3437E+02  0.2404E+03
    -15.218  0.3425E+02  0.2409E+03
    -15.204  0.3415E+02  0.2414E+03
    -15.191  0.3405E+02  0.2418E+03
    -15.177  0.3397E+02  0.2423E+03
    -15.163  0.3389E+02  0.2428E+03
    -15.149  0.3383E+02  0.2432E+03
    -15.136  0.3379E+02  0.2437E+03
    -15.122  0.3375E+02  0.2442E+03
    -15.108  0.3373E+02  0.2446E+03
    -15.094  0.3372E+02  0.2451E+03
    -15.081  0.3373E+02  0.2456E+03
    -15.067  0.3375E+02  0.2460E+03
    -15.053  0.3380E+02  0.2465E+03
    -15.039  0.3386E+02  0.2469E+03
    -15.026  0.3395E+02  0.2474E+03
    -15.012  0.3406E+02  0.2479E+03
    -14.998  0.3420E+02  0.2484E+03
    -14.984  0.3437E+02  0.2488E+03
    -14.970  0.3457E+02  0.2493E+03
    -14.957  0.3480E+02  0.2498E+03
    -14.943  0.3506E+02  0.2503E+03
    -14.929  0.3535E+02  0.2507E+03
    -14.915  0.3566E+02  0.2512E+03
    -14.902  0.3599E+02  0.2517E+03
    -14.888  0.3633E+02  0.2522E+03
    -14.874  0.3669E+02  0.2527E+03
    -14.860  0.3705E+02  0.2533E+03
    -14.847  0.3741E+02  0.2538E+03
    -14.833  0.3776E+02  0.2543E+03
    -14.819  0.3809E+02  0.2548E+03
    -14.805  0.3840E+02  0.2553E+03
    -14.792  0.3869E+02  0.2559E+03
    -14.778  0.3894E+02  0.2564E+03
    -14.764  0.3916E+02  0.2569E+03
    -14.750  0.3933E+02  0.2575E+03
    -14.737  0.3947E+02  0.2580E+03
    -14.723  0.3957E+02  0.2586E+03
    -14.709  0.3963E+02  0.2591E+03
    -14.695  0.3965E+02  0.2597E+03
    -14.681  0.3964E+02  0.2602E+03
    -14.668  0.3961E+02  0.2608E+03
    -14.654  0.3955E+02  0.2613E+03
    -14.640  0.3947E+02  0.2618E+03
    -14.626  0.3938E+02  0.2624E+03
    -14.613  0.3929E+02  0.2629E+03
    -14.599  0.3919E+02  0.2635E+03
    -14.585  0.3910E+02  0.2640E+03
    -14.571  0.3901E+02  0.2645E+03
    -14.558  0.3893E+02  0.2651E+03
    -14.544  0.3886E+02  0.2656E+03
    -14.530  0.3879E+02  0.2661E+03
    -14.516  0.3874E+02  0.2667E+03
    -14.503  0.3868E+02  0.2672E+03
    -14.489  0.3863E+02  0.2677E+03
    -14.475  0.3858E+02  0.2683E+03
    -14.461  0.3852E+02  0.2688E+03
    -14.447  0.3845E+02  0.2693E+03
    -14.434  0.3837E+02  0.2699E+03
    -14.420  0.3827E+02  0.2704E+03
    -14.406  0.3816E+02  0.2709E+03
    -14.392  0.3802E+02  0.2714E+03
    -14.379  0.3786E+02  0.2720E+03
    -14.365  0.3767E+02  0.2725E+03
    -14.351  0.3746E+02  0.2730E+03
    -14.337  0.3723E+02  0.2735E+03
    -14.324  0.3698E+02  0.2740E+03
    -14.310  0.3672E+02  0.2745E+03
    -14.296  0.3644E+02  0.2750E+03
    -14.282  0.3615E+02  0.2755E+03
    -14.269  0.3585E+02  0.2760E+03
    -14.255  0.3556E+02  0.2765E+03
    -14.241  0.3527E+02  0.2770E+03
    -14.227  0.3499E+02  0.2775E+03
    -14.214  0.3472E+02  0.2779E+03
    -14.200  0.3447E+02  0.2784E+03
    -14.186  0.3425E+02  0.2789E+03
    -14.172  0.3405E+02  0.2794E+03
    -14.158  0.3387E+02  0.2798E+03
    -14.145  0.3373E+02  0.2803E+03
    -14.131  0.3362E+02  0.2808E+03
    -14.117  0.3354E+02  0.2812E+03
    -14.103  0.3349E+02  0.2817E+03
    -14.090  0.3347E+02  0.2821E+03
    -14.076  0.3348E+02  0.2826E+03
    -14.062  0.3351E+02  0.2831E+03
    -14.048  0.3357E+02  0.2835E+03
    -14.035  0.3365E+02  0.2840E+03
    -14.021  0.3374E+02  0.2844E+03
    -14.007  0.3384E+02  0.2849E+03
    -13.993  0.3396E+02  0.2854E+03
    -13.980  0.3407E+02  0.2859E+03
    -13.966  0.3419E+02  0.2863E+03
    -13.952  0.3430E+02  0.2868E+03
    -13.938  0.3441E+02  0.2873E+03
    -13.924  0.3451E+02  0.2877E+03
    -13.911  0.3459E+02  0.2882E+03
    -13.897  0.3467E+02  0.2887E+03
    -13.883  0.3473E+02  0.2892E+03
    -13.869  0.3479E+02  0.2897E+03
    -13.856  0.3483E+02  0.2901E+03
    -13.842  0.3485E+02  0.2906E+03
    -13.828  0.3487E+02  0.2911E+03
    -13.814  0.3488E+02  0.2916E+03
    -13.801  0.3488E+02  0.2921E+03
    -13.787  0.3488E+02  0.2925E+03
    -13.773  0.3488E+02  0.2930E+03
    -13.759  0.3487E+02  0.2935E+03
    -13.746  0.3487E+02  0.2940E+03
    -13.732  0.3487E+02  0.2945E+03
    -13.718  0.3488E+02  0.2949E+03
    -13.704  0.3489E+02  0.2954E+03
    -13.690  0.3491E+02  0.2959E+03
    -13.677  0.3493E+02  0.2964E+03
    -13.663  0.3496E+02  0.2969E+03
    -13.649  0.3500E+02  0.2973E+03
    -13.635  0.3504E+02  0.2978E+03
    -13.622  0.3509E+02  0.2983E+03
    -13.608  0.3513E+02  0.2988E+03
    -13.594  0.3518E+02  0.2993E+03
    -13.580  0.3524E+02  0.2998E+03
    -13.567  0.3528E+02  0.3002E+03
    -13.553  0.3533E+02  0.3007E+03
    -13.539  0.3537E+02  0.3012E+03
    -13.525  0.3540E+02  0.3017E+03
    -13.512  0.3543E+02  0.3022E+03
    -13.498  0.3545E+02  0.3027E+03
    -13.484  0.3546E+02  0.3032E+03
    -13.470  0.3545E+02  0.3037E+03
    -13.457  0.3544E+02  0.3041E+03
    -13.443  0.3542E+02  0.3046E+03
    -13.429  0.3539E+02  0.3051E+03
    -13.415  0.3536E+02  0.3056E+03
    -13.401  0.3532E+02  0.3061E+03
    -13.388  0.3528E+02  0.3066E+03
    -13.374  0.3525E+02  0.3071E+03
    -13.360  0.3522E+02  0.3075E+03
    -13.346  0.3519E+02  0.3080E+03
    -13.333  0.3519E+02  0.3085E+03
    -13.319  0.3520E+02  0.3090E+03
    -13.305  0.3523E+02  0.3095E+03