 192 192   0   0
  0.2619380E+02  0.2556000E-08  0.1967610E-08  0.1000000E-08  0.5000000E-15
  1.000000000000000E-004
  CAR 
 unknown system                          
      6.11412408    -23.84132124 2000     -1.29757045      1.00000000
    -23.841  0.0000E+00  0.0000E+00
    -23.826  0.0000E+00  0.0000E+00
    -23.811  0.0000E+00  0.0000E+00
    -23.796  0.0000E+00  0.0000E+00
    -23.781  0.0000E+00  0.0000E+00
    -23.766  0.0000E+00  0.0000E+00
    -23.751  0.0000E+00  0.0000E+00
    -23.736  0.0000E+00  0.0000E+00
    -23.721  0.0000E+00  0.0000E+00
    -23.706  0.0000E+00  0.0000E+00
    -23.691  0.0000E+00  0.0000E+00
    -23.676  0.0000E+00  0.0000E+00
    -23.661  0.0000E+00  0.0000E+00
    -23.647  0.0000E+00  0.0000E+00
    -23.632  0.0000E+00  0.0000E+00
    -23.617  0.0000E+00  0.0000E+00
    -23.602  0.0000E+00  0.0000E+00
    -23.587  0.0000E+00  0.0000E+00
    -23.572  0.0000E+00  0.0000E+00
    -23.557  0.0000E+00  0.0000E+00
    -23.542  0.0000E+00  0.0000E+00
    -23.527  0.0000E+00  0.0000E+00
    -23.512  0.0000E+00  0.0000E+00
    -23.497  0.0000E+00  0.0000E+00
    -23.482  0.0000E+00  0.0000E+00
    -23.467  0.0000E+00  0.0000E+00
    -23.452  0.0000E+00  0.0000E+00
    -23.437  0.0000E+00  0.0000E+00
    -23.422  0.0000E+00  0.0000E+00
    -23.407  0.0000E+00  0.0000E+00
    -23.392  0.0000E+00  0.0000E+00
    -23.377  0.0000E+00  0.0000E+00
    -23.362  0.0000E+00  0.0000E+00
    -23.347  0.0000E+00  0.0000E+00
    -23.332  0.0000E+00  0.0000E+00
    -23.317  0.0000E+00  0.0000E+00
    -23.302  0.0000E+00  0.0000E+00
    -23.287  0.0000E+00  0.0000E+00
    -23.272  0.0000E+00  0.0000E+00
    -23.257  0.0000E+00  0.0000E+00
    -23.242  0.0000E+00  0.0000E+00
    -23.227  0.0000E+00  0.0000E+00
    -23.212  0.0000E+00  0.0000E+00
    -23.197  0.0000E+00  0.0000E+00
    -23.182  0.0000E+00  0.0000E+00
    -23.167  0.0000E+00  0.0000E+00
    -23.152  0.0000E+00  0.0000E+00
    -23.137  0.0000E+00  0.0000E+00
    -23.122  0.0000E+00  0.0000E+00
    -23.107  0.0000E+00  0.0000E+00
    -23.092  0.0000E+00  0.0000E+00
    -23.077  0.0000E+00  0.0000E+00
    -23.062  0.0000E+00  0.0000E+00
    -23.047  0.0000E+00  0.0000E+00
    -23.032  0.0000E+00  0.0000E+00
    -23.017  0.7409E-14  0.1110E-15
    -23.002  0.7409E-14  0.2220E-15
    -22.987  0.1729E-13  0.4811E-15
    -22.972  0.4692E-13  0.1184E-14
    -22.957  0.1062E-12  0.2776E-14
    -22.942  0.2519E-12  0.6550E-14
    -22.927  0.5639E-12  0.1500E-13
    -22.912  0.1282E-11  0.3421E-13
    -22.897  0.2853E-11  0.7696E-13
    -22.882  0.6311E-11  0.1715E-12
    -22.867  0.1377E-10  0.3779E-12
    -22.852  0.2975E-10  0.8237E-12
    -22.837  0.6352E-10  0.1776E-11
    -22.822  0.1341E-09  0.3786E-11
    -22.807  0.2801E-09  0.7983E-11
    -22.792  0.5784E-09  0.1665E-10
    -22.777  0.1181E-08  0.3435E-10
    -22.762  0.2385E-08  0.7010E-10
    -22.747  0.4764E-08  0.1415E-09
    -22.732  0.9408E-08  0.2825E-09
    -22.717  0.1838E-07  0.5578E-09
    -22.702  0.3549E-07  0.1090E-08
    -22.687  0.6779E-07  0.2106E-08
    -22.672  0.1281E-06  0.4024E-08
    -22.657  0.2392E-06  0.7609E-08
    -22.643  0.4419E-06  0.1423E-07
    -22.628  0.8074E-06  0.2633E-07
    -22.613  0.1459E-05  0.4819E-07
    -22.598  0.2607E-05  0.8725E-07
    -22.583  0.4607E-05  0.1563E-06
    -22.568  0.8051E-05  0.2769E-06
    -22.553  0.1392E-04  0.4855E-06
    -22.538  0.2379E-04  0.8419E-06
    -22.523  0.4022E-04  0.1445E-05
    -22.508  0.6725E-04  0.2452E-05
    -22.493  0.1112E-03  0.4119E-05
    -22.478  0.1819E-03  0.6844E-05
    -22.463  0.2942E-03  0.1125E-04
    -22.448  0.4708E-03  0.1831E-04
    -22.433  0.7450E-03  0.2947E-04
    -22.418  0.1166E-02  0.4695E-04
    -22.403  0.1805E-02  0.7400E-04
    -22.388  0.2764E-02  0.1154E-03
    -22.373  0.4187E-02  0.1782E-03
    -22.358  0.6272E-02  0.2722E-03
    -22.343  0.9295E-02  0.4114E-03
    -22.328  0.1362E-01  0.6156E-03
    -22.313  0.1976E-01  0.9117E-03
    -22.298  0.2834E-01  0.1336E-02
    -22.283  0.4020E-01  0.1939E-02
    -22.268  0.5643E-01  0.2784E-02
    -22.253  0.7835E-01  0.3958E-02
    -22.238  0.1076E+00  0.5571E-02
    -22.223  0.1462E+00  0.7763E-02
    -22.208  0.1966E+00  0.1071E-01
    -22.193  0.2615E+00  0.1463E-01
    -22.178  0.3441E+00  0.1978E-01
    -22.163  0.4480E+00  0.2650E-01
    -22.148  0.5771E+00  0.3514E-01
    -22.133  0.7354E+00  0.4617E-01
    -22.118  0.9274E+00  0.6006E-01
    -22.103  0.1157E+01  0.7740E-01
    -22.088  0.1429E+01  0.9882E-01
    -22.073  0.1746E+01  0.1250E+00
    -22.058  0.2110E+01  0.1566E+00
    -22.043  0.2525E+01  0.1944E+00
    -22.028  0.2990E+01  0.2392E+00
    -22.013  0.3503E+01  0.2917E+00
    -21.998  0.4063E+01  0.3526E+00
    -21.983  0.4664E+01  0.4225E+00
    -21.968  0.5299E+01  0.5019E+00
    -21.953  0.5960E+01  0.5912E+00
    -21.938  0.6635E+01  0.6907E+00
    -21.923  0.7314E+01  0.8003E+00
    -21.908  0.7983E+01  0.9199E+00
    -21.893  0.8629E+01  0.1049E+01
    -21.878  0.9237E+01  0.1188E+01
    -21.863  0.9797E+01  0.1334E+01
    -21.848  0.1030E+02  0.1489E+01
    -21.833  0.1073E+02  0.1649E+01
    -21.818  0.1108E+02  0.1815E+01
    -21.803  0.1135E+02  0.1986E+01
    -21.788  0.1155E+02  0.2159E+01
    -21.773  0.1168E+02  0.2334E+01
    -21.758  0.1173E+02  0.2510E+01
    -21.743  0.1174E+02  0.2685E+01
    -21.728  0.1170E+02  0.2861E+01
    -21.713  0.1163E+02  0.3035E+01
    -21.698  0.1156E+02  0.3208E+01
    -21.683  0.1150E+02  0.3381E+01
    -21.668  0.1147E+02  0.3553E+01
    -21.653  0.1148E+02  0.3725E+01
    -21.638  0.1155E+02  0.3898E+01
    -21.624  0.1168E+02  0.4073E+01
    -21.609  0.1188E+02  0.4251E+01
    -21.594  0.1215E+02  0.4433E+01
    -21.579  0.1249E+02  0.4620E+01
    -21.564  0.1290E+02  0.4813E+01
    -21.549  0.1335E+02  0.5013E+01
    -21.534  0.1384E+02  0.5221E+01
    -21.519  0.1435E+02  0.5436E+01
    -21.504  0.1485E+02  0.5658E+01
    -21.489  0.1533E+02  0.5888E+01
    -21.474  0.1577E+02  0.6124E+01
    -21.459  0.1614E+02  0.6366E+01
    -21.444  0.1644E+02  0.6612E+01
    -21.429  0.1665E+02  0.6862E+01
    -21.414  0.1677E+02  0.7113E+01
    -21.399  0.1679E+02  0.7365E+01
    -21.384  0.1671E+02  0.7615E+01
    -21.369  0.1654E+02  0.7863E+01
    -21.354  0.1629E+02  0.8107E+01
    -21.339  0.1598E+02  0.8347E+01
    -21.324  0.1563E+02  0.8581E+01
    -21.309  0.1526E+02  0.8810E+01
    -21.294  0.1489E+02  0.9033E+01
    -21.279  0.1453E+02  0.9251E+01
    -21.264  0.1423E+02  0.9464E+01
    -21.249  0.1398E+02  0.9673E+01
    -21.234  0.1381E+02  0.9880E+01
    -21.219  0.1374E+02  0.1009E+02
    -21.204  0.1375E+02  0.1029E+02
    -21.189  0.1387E+02  0.1050E+02
    -21.174  0.1409E+02  0.1071E+02
    -21.159  0.1441E+02  0.1093E+02
    -21.144  0.1481E+02  0.1115E+02
    -21.129  0.1529E+02  0.1138E+02
    -21.114  0.1583E+02  0.1162E+02
    -21.099  0.1642E+02  0.1186E+02
    -21.084  0.1705E+02  0.1212E+02
    -21.069  0.1771E+02  0.1238E+02
    -21.054  0.1837E+02  0.1266E+02
    -21.039  0.1903E+02  0.1294E+02
    -21.024  0.1969E+02  0.1324E+02
    -21.009  0.2032E+02  0.1354E+02
    -20.994  0.2092E+02  0.1386E+02
    -20.979  0.2149E+02  0.1418E+02
    -20.964  0.2202E+02  0.1451E+02
    -20.949  0.2251E+02  0.1485E+02
    -20.934  0.2296E+02  0.1519E+02
    -20.919  0.2336E+02  0.1554E+02
    -20.904  0.2372E+02  0.1589E+02
    -20.889  0.2403E+02  0.1625E+02
    -20.874  0.2429E+02  0.1662E+02
    -20.859  0.2451E+02  0.1699E+02
    -20.844  0.2468E+02  0.1736E+02
    -20.829  0.2481E+02  0.1773E+02
    -20.814  0.2490E+02  0.1810E+02
    -20.799  0.2495E+02  0.1847E+02
    -20.784  0.2497E+02  0.1885E+02
    -20.769  0.2496E+02  0.1922E+02
    -20.754  0.2492E+02  0.1960E+02
    -20.739  0.2486E+02  0.1997E+02
    -20.724  0.2479E+02  0.2034E+02
    -20.709  0.2471E+02  0.2071E+02
    -20.694  0.2462E+02  0.2108E+02
    -20.679  0.2453E+02  0.2145E+02
    -20.664  0.2444E+02  0.2181E+02
    -20.649  0.2436E+02  0.2218E+02
    -20.634  0.2429E+02  0.2254E+02
    -20.619  0.2423E+02  0.2291E+02
    -20.605  0.2418E+02  0.2327E+02
    -20.590  0.2415E+02  0.2363E+02
    -20.575  0.2414E+02  0.2399E+02
    -20.560  0.2414E+02  0.2435E+02
    -20.545  0.2416E+02  0.2472E+02
    -20.530  0.2421E+02  0.2508E+02
    -20.515  0.2427E+02  0.2544E+02
    -20.500  0.2435E+02  0.2581E+02
    -20.485  0.2446E+02  0.2617E+02
    -20.470  0.2458E+02  0.2654E+02
    -20.455  0.2472E+02  0.2691E+02
    -20.440  0.2487E+02  0.2728E+02
    -20.425  0.2504E+02  0.2766E+02
    -20.410  0.2522E+02  0.2804E+02
    -20.395  0.2541E+02  0.2842E+02
    -20.380  0.2560E+02  0.2880E+02
    -20.365  0.2580E+02  0.2919E+02
    -20.350  0.2599E+02  0.2958E+02
    -20.335  0.2619E+02  0.2997E+02
    -20.320  0.2638E+02  0.3037E+02
    -20.305  0.2656E+02  0.3076E+02
    -20.290  0.2673E+02  0.3116E+02
    -20.275  0.2690E+02  0.3157E+02
    -20.260  0.2706E+02  0.3197E+02
    -20.245  0.2720E+02  0.3238E+02
    -20.230  0.2733E+02  0.3279E+02
    -20.215  0.2746E+02  0.3320E+02
    -20.200  0.2757E+02  0.3362E+02
    -20.185  0.2767E+02  0.3403E+02
    -20.170  0.2776E+02  0.3445E+02
    -20.155  0.2785E+02  0.3486E+02
    -20.140  0.2792E+02  0.3528E+02
    -20.125  0.2798E+02  0.3570E+02
    -20.110  0.2803E+02  0.3612E+02
    -20.095  0.2807E+02  0.3654E+02
    -20.080  0.2810E+02  0.3696E+02
    -20.065  0.2812E+02  0.3738E+02
    -20.050  0.2813E+02  0.3781E+02
    -20.035  0.2812E+02  0.3823E+02
    -20.020  0.2811E+02  0.3865E+02
    -20.005  0.2807E+02  0.3907E+02
    -19.990  0.2803E+02  0.3949E+02
    -19.975  0.2796E+02  0.3991E+02
    -19.960  0.2788E+02  0.4033E+02
    -19.945  0.2777E+02  0.4074E+02
    -19.930  0.2765E+02  0.4116E+02
    -19.915  0.2750E+02  0.4157E+02
    -19.900  0.2732E+02  0.4198E+02
    -19.885  0.2712E+02  0.4238E+02
    -19.870  0.2690E+02  0.4279E+02
    -19.855  0.2665E+02  0.4319E+02
    -19.840  0.2639E+02  0.4358E+02
    -19.825  0.2610E+02  0.4397E+02
    -19.810  0.2581E+02  0.4436E+02
    -19.795  0.2552E+02  0.4474E+02
    -19.780  0.2523E+02  0.4512E+02
    -19.765  0.2496E+02  0.4549E+02
    -19.750  0.2471E+02  0.4586E+02
    -19.735  0.2449E+02  0.4623E+02
    -19.720  0.2432E+02  0.4660E+02
    -19.705  0.2420E+02  0.4696E+02
    -19.690  0.2413E+02  0.4732E+02
    -19.675  0.2413E+02  0.4768E+02
    -19.660  0.2419E+02  0.4804E+02
    -19.645  0.2432E+02  0.4841E+02
    -19.630  0.2451E+02  0.4878E+02
    -19.615  0.2476E+02  0.4915E+02
    -19.601  0.2506E+02  0.4952E+02
    -19.586  0.2541E+02  0.4990E+02
    -19.571  0.2578E+02  0.5029E+02
    -19.556  0.2616E+02  0.5068E+02
    -19.541  0.2656E+02  0.5108E+02
    -19.526  0.2694E+02  0.5148E+02
    -19.511  0.2731E+02  0.5189E+02
    -19.496  0.2765E+02  0.5231E+02
    -19.481  0.2796E+02  0.5273E+02
    -19.466  0.2822E+02  0.5315E+02
    -19.451  0.2844E+02  0.5357E+02
    -19.436  0.2861E+02  0.5400E+02
    -19.421  0.2873E+02  0.5443E+02
    -19.406  0.2881E+02  0.5487E+02
    -19.391  0.2885E+02  0.5530E+02
    -19.376  0.2886E+02  0.5573E+02
    -19.361  0.2884E+02  0.5616E+02
    -19.346  0.2880E+02  0.5659E+02
    -19.331  0.2874E+02  0.5703E+02
    -19.316  0.2868E+02  0.5745E+02
    -19.301  0.2860E+02  0.5788E+02
    -19.286  0.2853E+02  0.5831E+02
    -19.271  0.2847E+02  0.5874E+02
    -19.256  0.2841E+02  0.5916E+02
    -19.241  0.2835E+02  0.5959E+02
    -19.226  0.2831E+02  0.6001E+02
    -19.211  0.2828E+02  0.6044E+02
    -19.196  0.2827E+02  0.6086E+02
    -19.181  0.2826E+02  0.6128E+02
    -19.166  0.2826E+02  0.6171E+02
    -19.151  0.2828E+02  0.6213E+02
    -19.136  0.2830E+02  0.6255E+02
    -19.121  0.2834E+02  0.6298E+02
    -19.106  0.2838E+02  0.6340E+02
    -19.091  0.2842E+02  0.6383E+02
    -19.076  0.2848E+02  0.6426E+02
    -19.061  0.2853E+02  0.6469E+02
    -19.046  0.2859E+02  0.6511E+02
    -19.031  0.2865E+02  0.6554E+02
    -19.016  0.2871E+02  0.6597E+02
    -19.001  0.2876E+02  0.6640E+02
    -18.986  0.2882E+02  0.6684E+02
    -18.971  0.2888E+02  0.6727E+02
    -18.956  0.2894E+02  0.6770E+02
    -18.941  0.2900E+02  0.6814E+02
    -18.926  0.2907E+02  0.6857E+02
    -18.911  0.2915E+02  0.6901E+02
    -18.896  0.2924E+02  0.6945E+02
    -18.881  0.2935E+02  0.6989E+02
    -18.866  0.2947E+02  0.7033E+02
    -18.851  0.2963E+02  0.7077E+02
    -18.836  0.2980E+02  0.7122E+02
    -18.821  0.3001E+02  0.7167E+02
    -18.806  0.3024E+02  0.7212E+02
    -18.791  0.3050E+02  0.7258E+02
    -18.776  0.3079E+02  0.7304E+02
    -18.761  0.3109E+02  0.7351E+02
    -18.746  0.3142E+02  0.7398E+02
    -18.731  0.3176E+02  0.7445E+02
    -18.716  0.3210E+02  0.7493E+02
    -18.701  0.3245E+02  0.7542E+02
    -18.686  0.3278E+02  0.7591E+02
    -18.671  0.3310E+02  0.7641E+02
    -18.656  0.3339E+02  0.7691E+02
    -18.641  0.3364E+02  0.7741E+02
    -18.626  0.3386E+02  0.7792E+02
    -18.611  0.3402E+02  0.7843E+02
    -18.596  0.3414E+02  0.7894E+02
    -18.582  0.3419E+02  0.7945E+02
    -18.567  0.3417E+02  0.7997E+02
    -18.552  0.3409E+02  0.8048E+02
    -18.537  0.3394E+02  0.8098E+02
    -18.522  0.3372E+02  0.8149E+02
    -18.507  0.3344E+02  0.8199E+02
    -18.492  0.3309E+02  0.8249E+02
    -18.477  0.3268E+02  0.8298E+02
    -18.462  0.3223E+02  0.8346E+02
    -18.447  0.3173E+02  0.8393E+02
    -18.432  0.3120E+02  0.8440E+02
    -18.417  0.3065E+02  0.8486E+02
    -18.402  0.3008E+02  0.8531E+02
    -18.387  0.2952E+02  0.8575E+02
    -18.372  0.2897E+02  0.8619E+02
    -18.357  0.2845E+02  0.8662E+02
    -18.342  0.2796E+02  0.8703E+02
    -18.327  0.2751E+02  0.8745E+02
    -18.312  0.2712E+02  0.8785E+02
    -18.297  0.2677E+02  0.8825E+02
    -18.282  0.2648E+02  0.8865E+02
    -18.267  0.2625E+02  0.8904E+02
    -18.252  0.2607E+02  0.8943E+02
    -18.237  0.2593E+02  0.8982E+02
    -18.222  0.2585E+02  0.9021E+02
    -18.207  0.2579E+02  0.9060E+02
    -18.192  0.2577E+02  0.9098E+02
    -18.177  0.2576E+02  0.9137E+02
    -18.162  0.2577E+02  0.9176E+02
    -18.147  0.2579E+02  0.9214E+02
    -18.132  0.2581E+02  0.9253E+02
    -18.117  0.2583E+02  0.9292E+02
    -18.102  0.2584E+02  0.9330E+02
    -18.087  0.2585E+02  0.9369E+02
    -18.072  0.2586E+02  0.9408E+02
    -18.057  0.2588E+02  0.9447E+02
    -18.042  0.2589E+02  0.9485E+02
    -18.027  0.2592E+02  0.9524E+02
    -18.012  0.2597E+02  0.9563E+02
    -17.997  0.2604E+02  0.9602E+02
    -17.982  0.2613E+02  0.9641E+02
    -17.967  0.2626E+02  0.9681E+02
    -17.952  0.2641E+02  0.9720E+02
    -17.937  0.2660E+02  0.9760E+02
    -17.922  0.2683E+02  0.9800E+02
    -17.907  0.2709E+02  0.9841E+02
    -17.892  0.2737E+02  0.9882E+02
    -17.877  0.2769E+02  0.9923E+02
    -17.862  0.2802E+02  0.9965E+02
    -17.847  0.2837E+02  0.1001E+03
    -17.832  0.2872E+02  0.1005E+03
    -17.817  0.2908E+02  0.1009E+03
    -17.802  0.2944E+02  0.1014E+03
    -17.787  0.2979E+02  0.1018E+03
    -17.772  0.3012E+02  0.1023E+03
    -17.757  0.3043E+02  0.1027E+03
    -17.742  0.3072E+02  0.1032E+03
    -17.727  0.3098E+02  0.1037E+03
    -17.712  0.3122E+02  0.1041E+03
    -17.697  0.3142E+02  0.1046E+03
    -17.682  0.3160E+02  0.1051E+03
    -17.667  0.3174E+02  0.1056E+03
    -17.652  0.3185E+02  0.1060E+03
    -17.637  0.3193E+02  0.1065E+03
    -17.622  0.3199E+02  0.1070E+03
    -17.607  0.3202E+02  0.1075E+03
    -17.592  0.3202E+02  0.1079E+03
    -17.578  0.3201E+02  0.1084E+03
    -17.563  0.3198E+02  0.1089E+03
    -17.548  0.3194E+02  0.1094E+03
    -17.533  0.3188E+02  0.1099E+03
    -17.518  0.3182E+02  0.1103E+03
    -17.503  0.3176E+02  0.1108E+03
    -17.488  0.3169E+02  0.1113E+03
    -17.473  0.3162E+02  0.1118E+03
    -17.458  0.3156E+02  0.1122E+03
    -17.443  0.3150E+02  0.1127E+03
    -17.428  0.3144E+02  0.1132E+03
    -17.413  0.3138E+02  0.1137E+03
    -17.398  0.3133E+02  0.1141E+03
    -17.383  0.3127E+02  0.1146E+03
    -17.368  0.3121E+02  0.1151E+03
    -17.353  0.3115E+02  0.1155E+03
    -17.338  0.3108E+02  0.1160E+03
    -17.323  0.3100E+02  0.1165E+03
    -17.308  0.3091E+02  0.1169E+03
    -17.293  0.3081E+02  0.1174E+03
    -17.278  0.3069E+02  0.1178E+03
    -17.263  0.3056E+02  0.1183E+03
    -17.248  0.3042E+02  0.1188E+03
    -17.233  0.3027E+02  0.1192E+03
    -17.218  0.3012E+02  0.1197E+03
    -17.203  0.2996E+02  0.1201E+03
    -17.188  0.2980E+02  0.1206E+03
    -17.173  0.2965E+02  0.1210E+03
    -17.158  0.2950E+02  0.1214E+03
    -17.143  0.2938E+02  0.1219E+03
    -17.128  0.2927E+02  0.1223E+03
    -17.113  0.2919E+02  0.1228E+03
    -17.098  0.2912E+02  0.1232E+03
    -17.083  0.2909E+02  0.1236E+03
    -17.068  0.2908E+02  0.1241E+03
    -17.053  0.2910E+02  0.1245E+03
    -17.038  0.2914E+02  0.1249E+03
    -17.023  0.2920E+02  0.1254E+03
    -17.008  0.2927E+02  0.1258E+03
    -16.993  0.2936E+02  0.1263E+03
    -16.978  0.2946E+02  0.1267E+03
    -16.963  0.2956E+02  0.1271E+03
    -16.948  0.2965E+02  0.1276E+03
    -16.933  0.2974E+02  0.1280E+03
    -16.918  0.2983E+02  0.1285E+03
    -16.903  0.2990E+02  0.1289E+03
    -16.888  0.2995E+02  0.1294E+03
    -16.873  0.2999E+02  0.1298E+03
    -16.858  0.3002E+02  0.1303E+03
    -16.843  0.3003E+02  0.1307E+03
    -16.828  0.3003E+02  0.1312E+03
    -16.813  0.3002E+02  0.1316E+03
    -16.798  0.3001E+02  0.1321E+03
    -16.783  0.2999E+02  0.1325E+03
    -16.768  0.2997E+02  0.1330E+03
    -16.753  0.2995E+02  0.1334E+03
    -16.738  0.2994E+02  0.1339E+03
    -16.723  0.2994E+02  0.1343E+03
    -16.708  0.2994E+02  0.1348E+03
    -16.693  0.2995E+02  0.1352E+03
    -16.678  0.2996E+02  0.1357E+03
    -16.663  0.2998E+02  0.1361E+03
    -16.648  0.3000E+02  0.1366E+03
    -16.633  0.3002E+02  0.1370E+03
    -16.618  0.3004E+02  0.1375E+03
    -16.603  0.3004E+02  0.1379E+03
    -16.588  0.3004E+02  0.1384E+03
    -16.573  0.3002E+02  0.1388E+03
    -16.559  0.2999E+02  0.1393E+03
    -16.544  0.2995E+02  0.1397E+03
    -16.529  0.2989E+02  0.1402E+03
    -16.514  0.2981E+02  0.1406E+03
    -16.499  0.2973E+02  0.1410E+03
    -16.484  0.2963E+02  0.1415E+03
    -16.469  0.2953E+02  0.1419E+03
    -16.454  0.2944E+02  0.1424E+03
    -16.439  0.2934E+02  0.1428E+03
    -16.424  0.2926E+02  0.1433E+03
    -16.409  0.2919E+02  0.1437E+03
    -16.394  0.2914E+02  0.1441E+03
    -16.379  0.2912E+02  0.1446E+03
    -16.364  0.2912E+02  0.1450E+03
    -16.349  0.2914E+02  0.1454E+03
    -16.334  0.2919E+02  0.1459E+03
    -16.319  0.2926E+02  0.1463E+03
    -16.304  0.2935E+02  0.1468E+03
    -16.289  0.2946E+02  0.1472E+03
    -16.274  0.2957E+02  0.1476E+03
    -16.259  0.2969E+02  0.1481E+03
    -16.244  0.2980E+02  0.1485E+03
    -16.229  0.2989E+02  0.1490E+03
    -16.214  0.2997E+02  0.1494E+03
    -16.199  0.3001E+02  0.1499E+03
    -16.184  0.3002E+02  0.1503E+03
    -16.169  0.2999E+02  0.1508E+03
    -16.154  0.2992E+02  0.1512E+03
    -16.139  0.2981E+02  0.1517E+03
    -16.124  0.2965E+02  0.1521E+03
    -16.109  0.2946E+02  0.1526E+03
    -16.094  0.2923E+02  0.1530E+03
    -16.079  0.2897E+02  0.1534E+03
    -16.064  0.2869E+02  0.1539E+03
    -16.049  0.2840E+02  0.1543E+03
    -16.034  0.2810E+02  0.1547E+03
    -16.019  0.2781E+02  0.1551E+03
    -16.004  0.2753E+02  0.1555E+03
    -15.989  0.2728E+02  0.1559E+03
    -15.974  0.2705E+02  0.1563E+03
    -15.959  0.2685E+02  0.1568E+03
    -15.944  0.2670E+02  0.1572E+03
    -15.929  0.2658E+02  0.1575E+03
    -15.914  0.2651E+02  0.1579E+03
    -15.899  0.2648E+02  0.1583E+03
    -15.884  0.2649E+02  0.1587E+03
    -15.869  0.2653E+02  0.1591E+03
    -15.854  0.2661E+02  0.1595E+03
    -15.839  0.2672E+02  0.1599E+03
    -15.824  0.2685E+02  0.1603E+03
    -15.809  0.2700E+02  0.1607E+03
    -15.794  0.2716E+02  0.1612E+03
    -15.779  0.2732E+02  0.1616E+03
    -15.764  0.2747E+02  0.1620E+03
    -15.749  0.2762E+02  0.1624E+03
    -15.734  0.2774E+02  0.1628E+03
    -15.719  0.2785E+02  0.1632E+03
    -15.704  0.2794E+02  0.1636E+03
    -15.689  0.2799E+02  0.1641E+03
    -15.674  0.2802E+02  0.1645E+03
    -15.659  0.2803E+02  0.1649E+03
    -15.644  0.2801E+02  0.1653E+03
    -15.629  0.2797E+02  0.1657E+03
    -15.614  0.2791E+02  0.1662E+03
    -15.599  0.2784E+02  0.1666E+03
    -15.584  0.2776E+02  0.1670E+03
    -15.569  0.2769E+02  0.1674E+03
    -15.554  0.2763E+02  0.1678E+03
    -15.540  0.2758E+02  0.1682E+03
    -15.525  0.2756E+02  0.1686E+03
    -15.510  0.2756E+02  0.1691E+03
    -15.495  0.2760E+02  0.1695E+03
    -15.480  0.2767E+02  0.1699E+03
    -15.465  0.2778E+02  0.1703E+03
    -15.450  0.2792E+02  0.1707E+03
    -15.435  0.2809E+02  0.1711E+03
    -15.420  0.2829E+02  0.1716E+03
    -15.405  0.2851E+02  0.1720E+03
    -15.390  0.2875E+02  0.1724E+03
    -15.375  0.2900E+02  0.1729E+03
    -15.360  0.2925E+02  0.1733E+03
    -15.345  0.2950E+02  0.1737E+03
    -15.330  0.2973E+02  0.1742E+03
    -15.315  0.2996E+02  0.1746E+03
    -15.300  0.3016E+02  0.1751E+03
    -15.285  0.3035E+02  0.1755E+03
    -15.270  0.3052E+02  0.1760E+03
    -15.255  0.3066E+02  0.1765E+03
    -15.240  0.3079E+02  0.1769E+03
    -15.225  0.3089E+02  0.1774E+03
    -15.210  0.3098E+02  0.1778E+03
    -15.195  0.3105E+02  0.1783E+03
    -15.180  0.3111E+02  0.1788E+03
    -15.165  0.3116E+02  0.1792E+03
    -15.150  0.3120E+02  0.1797E+03
    -15.135  0.3123E+02  0.1802E+03
    -15.120  0.3125E+02  0.1806E+03
    -15.105  0.3126E+02  0.1811E+03
    -15.090  0.3126E+02  0.1816E+03
    -15.075  0.3125E+02  0.1821E+03
    -15.060  0.3122E+02  0.1825E+03
    -15.045  0.3117E+02  0.1830E+03
    -15.030  0.3111E+02  0.1835E+03
    -15.015  0.3104E+02  0.1839E+03
    -15.000  0.3094E+02  0.1844E+03
    -14.985  0.3083E+02  0.1848E+03
    -14.970  0.3070E+02  0.1853E+03
    -14.955  0.3056E+02  0.1858E+03
    -14.940  0.3040E+02  0.1862E+03
    -14.925  0.3024E+02  0.1867E+03
    -14.910  0.3008E+02  0.1871E+03
    -14.895  0.2992E+02  0.1876E+03
    -14.880  0.2976E+02  0.1880E+03
    -14.865  0.2961E+02  0.1885E+03
    -14.850  0.2948E+02  0.1889E+03
    -14.835  0.2936E+02  0.1893E+03
    -14.820  0.2926E+02  0.1898E+03
    -14.805  0.2919E+02  0.1902E+03
    -14.790  0.2914E+02  0.1907E+03
    -14.775  0.2912E+02  0.1911E+03
    -14.760  0.2912E+02  0.1915E+03
    -14.745  0.2916E+02  0.1920E+03
    -14.730  0.2922E+02  0.1924E+03
    -14.715  0.2930E+02  0.1928E+03
    -14.700  0.2941E+02  0.1933E+03
    -14.685  0.2953E+02  0.1937E+03
    -14.670  0.2968E+02  0.1942E+03
    -14.655  0.2983E+02  0.1946E+03
    -14.640  0.2999E+02  0.1951E+03
    -14.625  0.3015E+02  0.1955E+03
    -14.610  0.3031E+02  0.1960E+03
    -14.595  0.3047E+02  0.1964E+03
    -14.580  0.3061E+02  0.1969E+03
    -14.565  0.3074E+02  0.1973E+03
    -14.550  0.3086E+02  0.1978E+03
    -14.536  0.3096E+02  0.1983E+03
    -14.521  0.3103E+02  0.1987E+03
    -14.506  0.3109E+02  0.1992E+03
    -14.491  0.3112E+02  0.1997E+03
    -14.476  0.3113E+02  0.2001E+03
    -14.461  0.3111E+02  0.2006E+03
    -14.446  0.3108E+02  0.2011E+03
    -14.431  0.3102E+02  0.2015E+03
    -14.416  0.3095E+02  0.2020E+03
    -14.401  0.3086E+02  0.2025E+03
    -14.386  0.3075E+02  0.2029E+03
    -14.371  0.3063E+02  0.2034E+03
    -14.356  0.3050E+02  0.2038E+03
    -14.341  0.3036E+02  0.2043E+03
    -14.326  0.3022E+02  0.2047E+03
    -14.311  0.3008E+02  0.2052E+03
    -14.296  0.2994E+02  0.2056E+03
    -14.281  0.2981E+02  0.2061E+03
    -14.266  0.2968E+02  0.2065E+03
    -14.251  0.2957E+02  0.2070E+03
    -14.236  0.2948E+02  0.2074E+03
    -14.221  0.2940E+02  0.2079E+03
    -14.206  0.2934E+02  0.2083E+03
    -14.191  0.2930E+02  0.2087E+03
    -14.176  0.2928E+02  0.2092E+03
    -14.161  0.2928E+02  0.2096E+03
    -14.146  0.2930E+02  0.2101E+03
    -14.131  0.2934E+02  0.2105E+03
    -14.116  0.2939E+02  0.2109E+03
    -14.101  0.2946E+02  0.2114E+03
    -14.086  0.2954E+02  0.2118E+03
    -14.071  0.2962E+02  0.2123E+03
    -14.056  0.2970E+02  0.2127E+03
    -14.041  0.2979E+02  0.2132E+03
    -14.026  0.2987E+02  0.2136E+03
    -14.011  0.2994E+02  0.2141E+03
    -13.996  0.3001E+02  0.2145E+03
    -13.981  0.3007E+02  0.2150E+03
    -13.966  0.3012E+02  0.2154E+03
    -13.951  0.3017E+02  0.2159E+03
    -13.936  0.3022E+02  0.2163E+03
    -13.921  0.3027E+02  0.2168E+03
    -13.906  0.3032E+02  0.2172E+03
    -13.891  0.3037E+02  0.2177E+03
    -13.876  0.3043E+02  0.2181E+03
    -13.861  0.3050E+02  0.2186E+03
    -13.846  0.3058E+02  0.2190E+03
    -13.831  0.3066E+02  0.2195E+03
    -13.816  0.3075E+02  0.2200E+03
    -13.801  0.3083E+02  0.2204E+03
    -13.786  0.3092E+02  0.2209E+03
    -13.771  0.3099E+02  0.2214E+03
    -13.756  0.3105E+02  0.2218E+03
    -13.741  0.3108E+02  0.2223E+03
    -13.726  0.3109E+02  0.2227E+03
    -13.711  0.3106E+02  0.2232E+03
    -13.696  0.3100E+02  0.2237E+03
    -13.681  0.3090E+02  0.2241E+03
    -13.666  0.3077E+02  0.2246E+03
    -13.651  0.3059E+02  0.2251E+03
    -13.636  0.3038E+02  0.2255E+03
    -13.621  0.3014E+02  0.2260E+03
    -13.606  0.2988E+02  0.2264E+03
    -13.591  0.2960E+02  0.2269E+03
    -13.576  0.2931E+02  0.2273E+03
    -13.561  0.2902E+02  0.2277E+03
    -13.546  0.2873E+02  0.2282E+03
    -13.531  0.2845E+02  0.2286E+03
    -13.517  0.2819E+02  0.2290E+03
    -13.502  0.2796E+02  0.2294E+03
    -13.487  0.2775E+02  0.2298E+03
    -13.472  0.2757E+02  0.2303E+03
    -13.457  0.2743E+02  0.2307E+03
    -13.442  0.2733E+02  0.2311E+03
    -13.427  0.2727E+02  0.2315E+03
    -13.412  0.2724E+02  0.2319E+03
    -13.397  0.2726E+02  0.2323E+03
    -13.382  0.2732E+02  0.2327E+03
    -13.367  0.2741E+02  0.2331E+03
    -13.352  0.2755E+02  0.2335E+03
    -13.337  0.2772E+02  0.2340E+03
    -13.322  0.2793E+02  0.2344E+03
    -13.307  0.2817E+02  0.2348E+03
    -13.292  0.2845E+02  0.2352E+03
    -13.277  0.2875E+02  0.2357E+03
    -13.262  0.2907E+02  0.2361E+03
    -13.247  0.2941E+02  0.2365E+03
    -13.232  0.2976E+02  0.2370E+03
    -13.217  0.3012E+02  0.2374E+03
    -13.202  0.3047E+02  0.2379E+03
    -13.187  0.3082E+02  0.2383E+03
    -13.172  0.3115E+02  0.2388E+03
    -13.157  0.3145E+02  0.2393E+03
    -13.142  0.3173E+02  0.2398E+03
    -13.127  0.3197E+02  0.2402E+03
    -13.112  0.3217E+02  0.2407E+03
    -13.097  0.3233E+02  0.2412E+03
    -13.082  0.3244E+02  0.2417E+03
    -13.067  0.3251E+02  0.2422E+03
    -13.052  0.3253E+02  0.2427E+03
    -13.037  0.3251E+02  0.2432E+03
    -13.022  0.3245E+02  0.2436E+03
    -13.007  0.3235E+02  0.2441E+03
    -12.992  0.3222E+02  0.2446E+03
    -12.977  0.3206E+02  0.2451E+03
    -12.962  0.3187E+02  0.2456E+03
    -12.947  0.3167E+02  0.2460E+03
    -12.932  0.3145E+02  0.2465E+03
    -12.917  0.3123E+02  0.2470E+03
    -12.902  0.3100E+02  0.2474E+03
    -12.887  0.3077E+02  0.2479E+03
    -12.872  0.3055E+02  0.2484E+03
    -12.857  0.3034E+02  0.2488E+03
    -12.842  0.3013E+02  0.2493E+03
    -12.827  0.2994E+02  0.2497E+03
    -12.812  0.2976E+02  0.2502E+03
    -12.797  0.2960E+02  0.2506E+03
    -12.782  0.2945E+02  0.2510E+03
    -12.767  0.2932E+02  0.2515E+03
    -12.752  0.2920E+02  0.2519E+03
    -12.737  0.2910E+02  0.2524E+03
    -12.722  0.2902E+02  0.2528E+03
    -12.707  0.2895E+02  0.2532E+03
    -12.692  0.2890E+02  0.2537E+03
    -12.677  0.2887E+02  0.2541E+03
    -12.662  0.2885E+02  0.2545E+03
    -12.647  0.2885E+02  0.2550E+03
    -12.632  0.2887E+02  0.2554E+03
    -12.617  0.2890E+02  0.2558E+03
    -12.602  0.2895E+02  0.2563E+03
    -12.587  0.2901E+02  0.2567E+03
    -12.572  0.2909E+02  0.2571E+03
    -12.557  0.2919E+02  0.2576E+03
    -12.542  0.2930E+02  0.2580E+03
    -12.527  0.2942E+02  0.2584E+03
    -12.512  0.2955E+02  0.2589E+03
    -12.498  0.2968E+02  0.2593E+03
    -12.483  0.2982E+02  0.2598E+03
    -12.468  0.2995E+02  0.2602E+03
    -12.453  0.3008E+02  0.2607E+03
    -12.438  0.3019E+02  0.2611E+03
    -12.423  0.3028E+02  0.2616E+03
    -12.408  0.3035E+02  0.2620E+03
    -12.393  0.3039E+02  0.2625E+03
    -12.378  0.3040E+02  0.2630E+03
    -12.363  0.3038E+02  0.2634E+03
    -12.348  0.3032E+02  0.2639E+03
    -12.333  0.3023E+02  0.2643E+03
    -12.318  0.3012E+02  0.2648E+03
    -12.303  0.2998E+02  0.2652E+03
    -12.288  0.2983E+02  0.2657E+03
    -12.273  0.2966E+02  0.2661E+03
    -12.258  0.2950E+02  0.2665E+03
    -12.243  0.2935E+02  0.2670E+03
    -12.228  0.2922E+02  0.2674E+03
    -12.213  0.2912E+02  0.2679E+03
    -12.198  0.2905E+02  0.2683E+03
    -12.183  0.2902E+02  0.2687E+03
    -12.168  0.2904E+02  0.2692E+03
    -12.153  0.2912E+02  0.2696E+03
    -12.138  0.2924E+02  0.2700E+03
    -12.123  0.2941E+02  0.2705E+03
    -12.108  0.2962E+02  0.2709E+03
    -12.093  0.2987E+02  0.2714E+03
    -12.078  0.3016E+02  0.2718E+03
    -12.063  0.3047E+02  0.2723E+03
    -12.048  0.3080E+02  0.2727E+03
    -12.033  0.3113E+02  0.2732E+03
    -12.018  0.3146E+02  0.2737E+03
    -12.003  0.3179E+02  0.2742E+03
    -11.988  0.3209E+02  0.2746E+03
    -11.973  0.3237E+02  0.2751E+03
    -11.958  0.3262E+02  0.2756E+03
    -11.943  0.3283E+02  0.2761E+03
    -11.928  0.3301E+02  0.2766E+03
    -11.913  0.3314E+02  0.2771E+03
    -11.898  0.3324E+02  0.2776E+03
    -11.883  0.3330E+02  0.2781E+03
    -11.868  0.3332E+02  0.2786E+03
    -11.853  0.3331E+02  0.2791E+03
    -11.838  0.3327E+02  0.2796E+03
    -11.823  0.3321E+02  0.2801E+03
    -11.808  0.3313E+02  0.2806E+03
    -11.793  0.3303E+02  0.2811E+03
    -11.778  0.3293E+02  0.2816E+03
    -11.763  0.3283E+02  0.2821E+03
    -11.748  0.3274E+02  0.2826E+03
    -11.733  0.3265E+02  0.2830E+03
    -11.718  0.3258E+02  0.2835E+03
    -11.703  0.3254E+02  0.2840E+03
    -11.688  0.3252E+02  0.2845E+03
    -11.673  0.3253E+02  0.2850E+03
    -11.658  0.3258E+02  0.2855E+03
    -11.643  0.3266E+02  0.2860E+03
    -11.628  0.3278E+02  0.2865E+03
    -11.613  0.3293E+02  0.2870E+03
    -11.598  0.3312E+02  0.2875E+03
    -11.583  0.3333E+02  0.2880E+03
    -11.568  0.3357E+02  0.2885E+03
    -11.553  0.3383E+02  0.2890E+03
    -11.538  0.3409E+02  0.2895E+03
    -11.523  0.3436E+02  0.2900E+03
    -11.508  0.3462E+02  0.2905E+03
    -11.494  0.3486E+02  0.2910E+03
    -11.479  0.3508E+02  0.2916E+03