 189 189   0   0
  0.5578817E+02  0.2616965E-08  0.2014541E-08  0.2000000E-08  0.5000000E-15
  1.000000000000000E-004
  CAR 
 unknown system                          
      3.63567498    -24.37078128 2000     -3.61601639      1.00000000
    -24.371  0.0000E+00  0.0000E+00
    -24.357  0.0000E+00  0.0000E+00
    -24.343  0.0000E+00  0.0000E+00
    -24.329  0.0000E+00  0.0000E+00
    -24.315  0.0000E+00  0.0000E+00
    -24.301  0.0000E+00  0.0000E+00
    -24.287  0.0000E+00  0.0000E+00
    -24.273  0.0000E+00  0.0000E+00
    -24.259  0.0000E+00  0.0000E+00
    -24.245  0.0000E+00  0.0000E+00
    -24.231  0.0000E+00  0.0000E+00
    -24.217  0.0000E+00  0.0000E+00
    -24.203  0.0000E+00  0.0000E+00
    -24.189  0.0000E+00  0.0000E+00
    -24.175  0.0000E+00  0.0000E+00
    -24.161  0.0000E+00  0.0000E+00
    -24.147  0.0000E+00  0.0000E+00
    -24.133  0.0000E+00  0.0000E+00
    -24.119  0.0000E+00  0.0000E+00
    -24.105  0.0000E+00  0.0000E+00
    -24.091  0.0000E+00  0.0000E+00
    -24.077  0.0000E+00  0.0000E+00
    -24.063  0.0000E+00  0.0000E+00
    -24.049  0.0000E+00  0.0000E+00
    -24.035  0.0000E+00  0.0000E+00
    -24.021  0.0000E+00  0.0000E+00
    -24.007  0.0000E+00  0.0000E+00
    -23.993  0.0000E+00  0.0000E+00
    -23.978  0.0000E+00  0.0000E+00
    -23.964  0.0000E+00  0.0000E+00
    -23.950  0.0000E+00  0.0000E+00
    -23.936  0.0000E+00  0.0000E+00
    -23.922  0.0000E+00  0.0000E+00
    -23.908  0.0000E+00  0.0000E+00
    -23.894  0.0000E+00  0.0000E+00
    -23.880  0.0000E+00  0.0000E+00
    -23.866  0.0000E+00  0.0000E+00
    -23.852  0.0000E+00  0.0000E+00
    -23.838  0.0000E+00  0.0000E+00
    -23.824  0.0000E+00  0.0000E+00
    -23.810  0.0000E+00  0.0000E+00
    -23.796  0.0000E+00  0.0000E+00
    -23.782  0.0000E+00  0.0000E+00
    -23.768  0.0000E+00  0.0000E+00
    -23.754  0.0000E+00  0.0000E+00
    -23.740  0.0000E+00  0.0000E+00
    -23.726  0.0000E+00  0.0000E+00
    -23.712  0.0000E+00  0.0000E+00
    -23.698  0.0000E+00  0.0000E+00
    -23.684  0.0000E+00  0.0000E+00
    -23.670  0.0000E+00  0.0000E+00
    -23.656  0.0000E+00  0.0000E+00
    -23.642  0.0000E+00  0.0000E+00
    -23.628  0.0000E+00  0.0000E+00
    -23.614  0.0000E+00  0.0000E+00
    -23.600  0.0000E+00  0.0000E+00
    -23.586  0.0000E+00  0.0000E+00
    -23.572  0.0000E+00  0.0000E+00
    -23.558  0.0000E+00  0.0000E+00
    -23.544  0.7924E-14  0.1110E-15
    -23.530  0.7924E-14  0.2220E-15
    -23.516  0.1849E-13  0.4811E-15
    -23.502  0.4226E-13  0.1073E-14
    -23.488  0.9861E-13  0.2455E-14
    -23.474  0.2113E-12  0.5415E-14
    -23.460  0.4570E-12  0.1182E-13
    -23.446  0.9853E-12  0.2562E-13
    -23.432  0.2093E-11  0.5494E-13
    -23.418  0.4402E-11  0.1166E-12
    -23.404  0.9182E-11  0.2453E-12
    -23.390  0.1896E-10  0.5109E-12
    -23.376  0.3875E-10  0.1054E-11
    -23.362  0.7846E-10  0.2153E-11
    -23.348  0.1573E-09  0.4357E-11
    -23.334  0.3123E-09  0.8732E-11
    -23.320  0.6140E-09  0.1733E-10
    -23.306  0.1195E-08  0.3408E-10
    -23.292  0.2304E-08  0.6637E-10
    -23.278  0.4399E-08  0.1280E-09
    -23.264  0.8317E-08  0.2445E-09
    -23.250  0.1557E-07  0.4627E-09
    -23.236  0.2887E-07  0.8671E-09
    -23.222  0.5300E-07  0.1610E-08
    -23.208  0.9636E-07  0.2960E-08
    -23.194  0.1735E-06  0.5390E-08
    -23.180  0.3093E-06  0.9724E-08
    -23.166  0.5461E-06  0.1738E-07
    -23.152  0.9549E-06  0.3075E-07
    -23.138  0.1653E-05  0.5392E-07
    -23.124  0.2835E-05  0.9364E-07
    -23.110  0.4814E-05  0.1611E-06
    -23.096  0.8096E-05  0.2745E-06
    -23.082  0.1348E-04  0.4634E-06
    -23.068  0.2224E-04  0.7750E-06
    -23.054  0.3632E-04  0.1284E-05
    -23.040  0.5875E-04  0.2107E-05
    -23.026  0.9411E-04  0.3425E-05
    -23.012  0.1493E-03  0.5517E-05
    -22.998  0.2346E-03  0.8803E-05
    -22.984  0.3650E-03  0.1392E-04
    -22.970  0.5624E-03  0.2180E-04
    -22.956  0.8584E-03  0.3382E-04
    -22.942  0.1298E-02  0.5200E-04
    -22.928  0.1943E-02  0.7922E-04
    -22.914  0.2880E-02  0.1196E-03
    -22.900  0.4230E-02  0.1788E-03
    -22.886  0.6153E-02  0.2650E-03
    -22.872  0.8864E-02  0.3892E-03
    -22.858  0.1265E-01  0.5664E-03
    -22.844  0.1788E-01  0.8169E-03
    -22.830  0.2503E-01  0.1168E-02
    -22.816  0.3471E-01  0.1654E-02
    -22.802  0.4769E-01  0.2322E-02
    -22.788  0.6489E-01  0.3231E-02
    -22.774  0.8748E-01  0.4457E-02
    -22.760  0.1168E+00  0.6094E-02
    -22.746  0.1546E+00  0.8259E-02
    -22.732  0.2026E+00  0.1110E-01
    -22.718  0.2631E+00  0.1478E-01
    -22.704  0.3385E+00  0.1953E-01
    -22.690  0.4316E+00  0.2557E-01
    -22.676  0.5451E+00  0.3321E-01
    -22.662  0.6824E+00  0.4277E-01
    -22.648  0.8465E+00  0.5463E-01
    -22.634  0.1041E+01  0.6921E-01
    -22.620  0.1268E+01  0.8697E-01
    -22.605  0.1531E+01  0.1084E+00
    -22.591  0.1833E+01  0.1341E+00
    -22.577  0.2175E+01  0.1646E+00
    -22.563  0.2559E+01  0.2004E+00
    -22.549  0.2985E+01  0.2422E+00
    -22.535  0.3452E+01  0.2906E+00
    -22.521  0.3960E+01  0.3461E+00
    -22.507  0.4506E+01  0.4092E+00
    -22.493  0.5086E+01  0.4805E+00
    -22.479  0.5696E+01  0.5603E+00
    -22.465  0.6330E+01  0.6490E+00
    -22.451  0.6982E+01  0.7468E+00
    -22.437  0.7646E+01  0.8539E+00
    -22.423  0.8315E+01  0.9704E+00
    -22.409  0.8981E+01  0.1096E+01
    -22.395  0.9640E+01  0.1231E+01
    -22.381  0.1028E+02  0.1375E+01
    -22.367  0.1091E+02  0.1528E+01
    -22.353  0.1151E+02  0.1689E+01
    -22.339  0.1208E+02  0.1859E+01
    -22.325  0.1263E+02  0.2036E+01
    -22.311  0.1315E+02  0.2220E+01
    -22.297  0.1364E+02  0.2411E+01
    -22.283  0.1411E+02  0.2609E+01
    -22.269  0.1455E+02  0.2812E+01
    -22.255  0.1498E+02  0.3022E+01
    -22.241  0.1539E+02  0.3238E+01
    -22.227  0.1580E+02  0.3459E+01
    -22.213  0.1620E+02  0.3686E+01
    -22.199  0.1660E+02  0.3919E+01
    -22.185  0.1700E+02  0.4157E+01
    -22.171  0.1741E+02  0.4401E+01
    -22.157  0.1782E+02  0.4651E+01
    -22.143  0.1824E+02  0.4906E+01
    -22.129  0.1867E+02  0.5168E+01
    -22.115  0.1911E+02  0.5435E+01
    -22.101  0.1955E+02  0.5709E+01
    -22.087  0.2000E+02  0.5989E+01
    -22.073  0.2046E+02  0.6276E+01
    -22.059  0.2092E+02  0.6569E+01
    -22.045  0.2138E+02  0.6869E+01
    -22.031  0.2185E+02  0.7175E+01
    -22.017  0.2231E+02  0.7487E+01
    -22.003  0.2278E+02  0.7807E+01
    -21.989  0.2323E+02  0.8132E+01
    -21.975  0.2369E+02  0.8464E+01
    -21.961  0.2413E+02  0.8802E+01
    -21.947  0.2455E+02  0.9146E+01
    -21.933  0.2496E+02  0.9496E+01
    -21.919  0.2535E+02  0.9851E+01
    -21.905  0.2571E+02  0.1021E+02
    -21.891  0.2604E+02  0.1058E+02
    -21.877  0.2634E+02  0.1095E+02
    -21.863  0.2660E+02  0.1132E+02
    -21.849  0.2681E+02  0.1169E+02
    -21.835  0.2698E+02  0.1207E+02
    -21.821  0.2710E+02  0.1245E+02
    -21.807  0.2717E+02  0.1283E+02
    -21.793  0.2720E+02  0.1321E+02
    -21.779  0.2718E+02  0.1359E+02
    -21.765  0.2713E+02  0.1397E+02
    -21.751  0.2704E+02  0.1435E+02
    -21.737  0.2693E+02  0.1473E+02
    -21.723  0.2679E+02  0.1510E+02
    -21.709  0.2664E+02  0.1548E+02
    -21.695  0.2648E+02  0.1585E+02
    -21.681  0.2632E+02  0.1622E+02
    -21.667  0.2617E+02  0.1658E+02
    -21.653  0.2603E+02  0.1695E+02
    -21.639  0.2590E+02  0.1731E+02
    -21.625  0.2579E+02  0.1767E+02
    -21.611  0.2570E+02  0.1803E+02
    -21.597  0.2563E+02  0.1839E+02
    -21.583  0.2558E+02  0.1875E+02
    -21.569  0.2554E+02  0.1911E+02
    -21.555  0.2553E+02  0.1947E+02
    -21.541  0.2552E+02  0.1982E+02
    -21.527  0.2552E+02  0.2018E+02
    -21.513  0.2553E+02  0.2054E+02
    -21.499  0.2555E+02  0.2090E+02
    -21.485  0.2557E+02  0.2126E+02
    -21.471  0.2559E+02  0.2161E+02
    -21.457  0.2562E+02  0.2197E+02
    -21.443  0.2565E+02  0.2233E+02
    -21.429  0.2567E+02  0.2269E+02
    -21.415  0.2571E+02  0.2305E+02
    -21.401  0.2574E+02  0.2341E+02
    -21.387  0.2579E+02  0.2377E+02
    -21.373  0.2585E+02  0.2414E+02
    -21.359  0.2592E+02  0.2450E+02
    -21.345  0.2600E+02  0.2486E+02
    -21.331  0.2610E+02  0.2523E+02
    -21.317  0.2622E+02  0.2560E+02
    -21.303  0.2635E+02  0.2597E+02
    -21.289  0.2651E+02  0.2634E+02
    -21.275  0.2669E+02  0.2671E+02
    -21.261  0.2688E+02  0.2709E+02
    -21.246  0.2709E+02  0.2747E+02
    -21.232  0.2730E+02  0.2785E+02
    -21.218  0.2753E+02  0.2824E+02
    -21.204  0.2777E+02  0.2862E+02
    -21.190  0.2800E+02  0.2902E+02
    -21.176  0.2823E+02  0.2941E+02
    -21.162  0.2844E+02  0.2981E+02
    -21.148  0.2864E+02  0.3021E+02
    -21.134  0.2882E+02  0.3062E+02
    -21.120  0.2898E+02  0.3102E+02
    -21.106  0.2910E+02  0.3143E+02
    -21.092  0.2919E+02  0.3184E+02
    -21.078  0.2925E+02  0.3225E+02
    -21.064  0.2928E+02  0.3266E+02
    -21.050  0.2927E+02  0.3307E+02
    -21.036  0.2924E+02  0.3348E+02
    -21.022  0.2918E+02  0.3389E+02
    -21.008  0.2910E+02  0.3430E+02
    -20.994  0.2900E+02  0.3470E+02
    -20.980  0.2890E+02  0.3511E+02
    -20.966  0.2880E+02  0.3551E+02
    -20.952  0.2871E+02  0.3591E+02
    -20.938  0.2863E+02  0.3631E+02
    -20.924  0.2858E+02  0.3671E+02
    -20.910  0.2856E+02  0.3711E+02
    -20.896  0.2857E+02  0.3751E+02
    -20.882  0.2862E+02  0.3791E+02
    -20.868  0.2871E+02  0.3832E+02
    -20.854  0.2883E+02  0.3872E+02
    -20.840  0.2900E+02  0.3913E+02
    -20.826  0.2919E+02  0.3954E+02
    -20.812  0.2941E+02  0.3995E+02
    -20.798  0.2966E+02  0.4036E+02
    -20.784  0.2991E+02  0.4078E+02
    -20.770  0.3017E+02  0.4121E+02
    -20.756  0.3043E+02  0.4163E+02
    -20.742  0.3067E+02  0.4206E+02
    -20.728  0.3089E+02  0.4249E+02
    -20.714  0.3109E+02  0.4293E+02
    -20.700  0.3125E+02  0.4337E+02
    -20.686  0.3137E+02  0.4381E+02
    -20.672  0.3145E+02  0.4425E+02
    -20.658  0.3148E+02  0.4469E+02
    -20.644  0.3147E+02  0.4513E+02
    -20.630  0.3142E+02  0.4557E+02
    -20.616  0.3132E+02  0.4601E+02
    -20.602  0.3119E+02  0.4645E+02
    -20.588  0.3103E+02  0.4688E+02
    -20.574  0.3084E+02  0.4731E+02
    -20.560  0.3064E+02  0.4774E+02
    -20.546  0.3042E+02  0.4817E+02
    -20.532  0.3020E+02  0.4859E+02
    -20.518  0.2997E+02  0.4901E+02
    -20.504  0.2975E+02  0.4943E+02
    -20.490  0.2954E+02  0.4984E+02
    -20.476  0.2934E+02  0.5025E+02
    -20.462  0.2915E+02  0.5066E+02
    -20.448  0.2898E+02  0.5107E+02
    -20.434  0.2884E+02  0.5147E+02
    -20.420  0.2871E+02  0.5187E+02
    -20.406  0.2859E+02  0.5227E+02
    -20.392  0.2850E+02  0.5267E+02
    -20.378  0.2842E+02  0.5307E+02
    -20.364  0.2836E+02  0.5347E+02
    -20.350  0.2831E+02  0.5387E+02
    -20.336  0.2827E+02  0.5426E+02
    -20.322  0.2825E+02  0.5466E+02
    -20.308  0.2823E+02  0.5505E+02
    -20.294  0.2822E+02  0.5545E+02
    -20.280  0.2822E+02  0.5584E+02
    -20.266  0.2824E+02  0.5624E+02
    -20.252  0.2826E+02  0.5664E+02
    -20.238  0.2830E+02  0.5703E+02
    -20.224  0.2835E+02  0.5743E+02
    -20.210  0.2841E+02  0.5783E+02
    -20.196  0.2850E+02  0.5823E+02
    -20.182  0.2860E+02  0.5863E+02
    -20.168  0.2873E+02  0.5903E+02
    -20.154  0.2889E+02  0.5943E+02
    -20.140  0.2906E+02  0.5984E+02
    -20.126  0.2926E+02  0.6025E+02
    -20.112  0.2949E+02  0.6066E+02
    -20.098  0.2974E+02  0.6108E+02
    -20.084  0.3001E+02  0.6150E+02
    -20.070  0.3029E+02  0.6193E+02
    -20.056  0.3059E+02  0.6235E+02
    -20.042  0.3089E+02  0.6279E+02
    -20.028  0.3120E+02  0.6322E+02
    -20.014  0.3150E+02  0.6367E+02
    -20.000  0.3180E+02  0.6411E+02
    -19.986  0.3208E+02  0.6456E+02
    -19.972  0.3234E+02  0.6501E+02
    -19.958  0.3257E+02  0.6547E+02
    -19.944  0.3278E+02  0.6593E+02
    -19.930  0.3295E+02  0.6639E+02
    -19.916  0.3309E+02  0.6685E+02
    -19.902  0.3319E+02  0.6732E+02
    -19.888  0.3327E+02  0.6779E+02
    -19.873  0.3330E+02  0.6825E+02
    -19.859  0.3331E+02  0.6872E+02
    -19.845  0.3330E+02  0.6919E+02
    -19.831  0.3326E+02  0.6965E+02
    -19.817  0.3320E+02  0.7012E+02
    -19.803  0.3313E+02  0.7058E+02
    -19.789  0.3305E+02  0.7104E+02
    -19.775  0.3297E+02  0.7151E+02
    -19.761  0.3290E+02  0.7197E+02
    -19.747  0.3283E+02  0.7243E+02
    -19.733  0.3277E+02  0.7289E+02
    -19.719  0.3272E+02  0.7334E+02
    -19.705  0.3269E+02  0.7380E+02
    -19.691  0.3268E+02  0.7426E+02
    -19.677  0.3268E+02  0.7472E+02
    -19.663  0.3270E+02  0.7518E+02
    -19.649  0.3273E+02  0.7563E+02
    -19.635  0.3278E+02  0.7609E+02
    -19.621  0.3284E+02  0.7655E+02
    -19.607  0.3290E+02  0.7701E+02
    -19.593  0.3297E+02  0.7748E+02
    -19.579  0.3304E+02  0.7794E+02
    -19.565  0.3311E+02  0.7840E+02
    -19.551  0.3316E+02  0.7887E+02
    -19.537  0.3321E+02  0.7933E+02
    -19.523  0.3324E+02  0.7980E+02
    -19.509  0.3325E+02  0.8026E+02
    -19.495  0.3324E+02  0.8073E+02
    -19.481  0.3321E+02  0.8120E+02
    -19.467  0.3315E+02  0.8166E+02
    -19.453  0.3307E+02  0.8212E+02
    -19.439  0.3296E+02  0.8259E+02
    -19.425  0.3283E+02  0.8305E+02
    -19.411  0.3266E+02  0.8350E+02
    -19.397  0.3248E+02  0.8396E+02
    -19.383  0.3227E+02  0.8441E+02
    -19.369  0.3204E+02  0.8486E+02
    -19.355  0.3179E+02  0.8530E+02
    -19.341  0.3152E+02  0.8575E+02
    -19.327  0.3125E+02  0.8618E+02
    -19.313  0.3097E+02  0.8662E+02
    -19.299  0.3069E+02  0.8705E+02
    -19.285  0.3041E+02  0.8747E+02
    -19.271  0.3013E+02  0.8790E+02
    -19.257  0.2987E+02  0.8831E+02
    -19.243  0.2962E+02  0.8873E+02
    -19.229  0.2940E+02  0.8914E+02
    -19.215  0.2919E+02  0.8955E+02
    -19.201  0.2902E+02  0.8996E+02
    -19.187  0.2888E+02  0.9036E+02
    -19.173  0.2877E+02  0.9076E+02
    -19.159  0.2869E+02  0.9117E+02
    -19.145  0.2865E+02  0.9157E+02
    -19.131  0.2865E+02  0.9197E+02
    -19.117  0.2868E+02  0.9237E+02
    -19.103  0.2874E+02  0.9277E+02
    -19.089  0.2883E+02  0.9318E+02
    -19.075  0.2895E+02  0.9358E+02
    -19.061  0.2909E+02  0.9399E+02
    -19.047  0.2924E+02  0.9440E+02
    -19.033  0.2941E+02  0.9481E+02
    -19.019  0.2958E+02  0.9523E+02
    -19.005  0.2975E+02  0.9564E+02
    -18.991  0.2993E+02  0.9606E+02
    -18.977  0.3009E+02  0.9648E+02
    -18.963  0.3025E+02  0.9691E+02
    -18.949  0.3040E+02  0.9733E+02
    -18.935  0.3053E+02  0.9776E+02
    -18.921  0.3065E+02  0.9819E+02
    -18.907  0.3076E+02  0.9862E+02
    -18.893  0.3086E+02  0.9905E+02
    -18.879  0.3095E+02  0.9949E+02
    -18.865  0.3104E+02  0.9992E+02
    -18.851  0.3112E+02  0.1004E+03
    -18.837  0.3121E+02  0.1008E+03
    -18.823  0.3129E+02  0.1012E+03
    -18.809  0.3138E+02  0.1017E+03
    -18.795  0.3147E+02  0.1021E+03
    -18.781  0.3158E+02  0.1026E+03
    -18.767  0.3169E+02  0.1030E+03
    -18.753  0.3181E+02  0.1034E+03
    -18.739  0.3194E+02  0.1039E+03
    -18.725  0.3207E+02  0.1043E+03
    -18.711  0.3222E+02  0.1048E+03
    -18.697  0.3237E+02  0.1052E+03
    -18.683  0.3254E+02  0.1057E+03
    -18.669  0.3270E+02  0.1062E+03
    -18.655  0.3288E+02  0.1066E+03
    -18.641  0.3307E+02  0.1071E+03
    -18.627  0.3326E+02  0.1076E+03
    -18.613  0.3346E+02  0.1080E+03
    -18.599  0.3367E+02  0.1085E+03
    -18.585  0.3388E+02  0.1090E+03
    -18.571  0.3411E+02  0.1094E+03
    -18.557  0.3434E+02  0.1099E+03
    -18.543  0.3457E+02  0.1104E+03
    -18.529  0.3481E+02  0.1109E+03
    -18.515  0.3505E+02  0.1114E+03
    -18.500  0.3528E+02  0.1119E+03
    -18.486  0.3551E+02  0.1124E+03
    -18.472  0.3572E+02  0.1129E+03
    -18.458  0.3592E+02  0.1134E+03
    -18.444  0.3610E+02  0.1139E+03
    -18.430  0.3625E+02  0.1144E+03
    -18.416  0.3637E+02  0.1149E+03
    -18.402  0.3646E+02  0.1154E+03
    -18.388  0.3651E+02  0.1159E+03
    -18.374  0.3652E+02  0.1164E+03
    -18.360  0.3650E+02  0.1170E+03
    -18.346  0.3645E+02  0.1175E+03
    -18.332  0.3636E+02  0.1180E+03
    -18.318  0.3624E+02  0.1185E+03
    -18.304  0.3610E+02  0.1190E+03
    -18.290  0.3593E+02  0.1195E+03
    -18.276  0.3575E+02  0.1200E+03
    -18.262  0.3556E+02  0.1205E+03
    -18.248  0.3537E+02  0.1210E+03
    -18.234  0.3518E+02  0.1215E+03
    -18.220  0.3499E+02  0.1220E+03
    -18.206  0.3482E+02  0.1225E+03
    -18.192  0.3466E+02  0.1229E+03
    -18.178  0.3452E+02  0.1234E+03
    -18.164  0.3441E+02  0.1239E+03
    -18.150  0.3431E+02  0.1244E+03
    -18.136  0.3424E+02  0.1249E+03
    -18.122  0.3419E+02  0.1253E+03
    -18.108  0.3416E+02  0.1258E+03
    -18.094  0.3416E+02  0.1263E+03
    -18.080  0.3417E+02  0.1268E+03
    -18.066  0.3421E+02  0.1273E+03
    -18.052  0.3427E+02  0.1277E+03
    -18.038  0.3434E+02  0.1282E+03
    -18.024  0.3442E+02  0.1287E+03
    -18.010  0.3452E+02  0.1292E+03
    -17.996  0.3463E+02  0.1297E+03
    -17.982  0.3476E+02  0.1302E+03
    -17.968  0.3489E+02  0.1307E+03
    -17.954  0.3503E+02  0.1311E+03
    -17.940  0.3517E+02  0.1316E+03
    -17.926  0.3532E+02  0.1321E+03
    -17.912  0.3547E+02  0.1326E+03
    -17.898  0.3563E+02  0.1331E+03
    -17.884  0.3578E+02  0.1336E+03
    -17.870  0.3592E+02  0.1341E+03
    -17.856  0.3606E+02  0.1346E+03
    -17.842  0.3620E+02  0.1351E+03
    -17.828  0.3632E+02  0.1357E+03
    -17.814  0.3644E+02  0.1362E+03
    -17.800  0.3654E+02  0.1367E+03
    -17.786  0.3663E+02  0.1372E+03
    -17.772  0.3671E+02  0.1377E+03
    -17.758  0.3677E+02  0.1382E+03
    -17.744  0.3681E+02  0.1387E+03
    -17.730  0.3684E+02  0.1392E+03
    -17.716  0.3685E+02  0.1398E+03
    -17.702  0.3685E+02  0.1403E+03
    -17.688  0.3683E+02  0.1408E+03
    -17.674  0.3679E+02  0.1413E+03
    -17.660  0.3673E+02  0.1418E+03
    -17.646  0.3666E+02  0.1423E+03
    -17.632  0.3658E+02  0.1429E+03
    -17.618  0.3648E+02  0.1434E+03
    -17.604  0.3636E+02  0.1439E+03
    -17.590  0.3623E+02  0.1444E+03
    -17.576  0.3609E+02  0.1449E+03
    -17.562  0.3594E+02  0.1454E+03
    -17.548  0.3577E+02  0.1459E+03
    -17.534  0.3560E+02  0.1464E+03
    -17.520  0.3542E+02  0.1469E+03
    -17.506  0.3523E+02  0.1474E+03
    -17.492  0.3504E+02  0.1479E+03
    -17.478  0.3484E+02  0.1484E+03
    -17.464  0.3464E+02  0.1488E+03
    -17.450  0.3443E+02  0.1493E+03
    -17.436  0.3421E+02  0.1498E+03
    -17.422  0.3399E+02  0.1503E+03
    -17.408  0.3376E+02  0.1508E+03
    -17.394  0.3353E+02  0.1512E+03
    -17.380  0.3329E+02  0.1517E+03
    -17.366  0.3304E+02  0.1522E+03
    -17.352  0.3277E+02  0.1526E+03
    -17.338  0.3250E+02  0.1531E+03
    -17.324  0.3222E+02  0.1535E+03
    -17.310  0.3193E+02  0.1540E+03
    -17.296  0.3162E+02  0.1544E+03
    -17.282  0.3131E+02  0.1548E+03
    -17.268  0.3098E+02  0.1553E+03
    -17.254  0.3065E+02  0.1557E+03
    -17.240  0.3030E+02  0.1561E+03
    -17.226  0.2996E+02  0.1566E+03
    -17.212  0.2961E+02  0.1570E+03
    -17.198  0.2926E+02  0.1574E+03
    -17.184  0.2892E+02  0.1578E+03
    -17.170  0.2859E+02  0.1582E+03
    -17.156  0.2827E+02  0.1586E+03
    -17.142  0.2798E+02  0.1590E+03
    -17.127  0.2770E+02  0.1594E+03
    -17.113  0.2745E+02  0.1597E+03
    -17.099  0.2724E+02  0.1601E+03
    -17.085  0.2705E+02  0.1605E+03
    -17.071  0.2690E+02  0.1609E+03
    -17.057  0.2679E+02  0.1613E+03
    -17.043  0.2670E+02  0.1616E+03
    -17.029  0.2665E+02  0.1620E+03
    -17.015  0.2662E+02  0.1624E+03
    -17.001  0.2662E+02  0.1628E+03
    -16.987  0.2664E+02  0.1631E+03
    -16.973  0.2666E+02  0.1635E+03
    -16.959  0.2669E+02  0.1639E+03
    -16.945  0.2672E+02  0.1642E+03
    -16.931  0.2674E+02  0.1646E+03
    -16.917  0.2674E+02  0.1650E+03
    -16.903  0.2672E+02  0.1654E+03
    -16.889  0.2666E+02  0.1657E+03
    -16.875  0.2657E+02  0.1661E+03
    -16.861  0.2644E+02  0.1665E+03
    -16.847  0.2626E+02  0.1669E+03
    -16.833  0.2604E+02  0.1672E+03
    -16.819  0.2578E+02  0.1676E+03
    -16.805  0.2547E+02  0.1679E+03
    -16.791  0.2512E+02  0.1683E+03
    -16.777  0.2474E+02  0.1686E+03
    -16.763  0.2433E+02  0.1690E+03
    -16.749  0.2390E+02  0.1693E+03
    -16.735  0.2346E+02  0.1696E+03
    -16.721  0.2302E+02  0.1700E+03
    -16.707  0.2259E+02  0.1703E+03
    -16.693  0.2217E+02  0.1706E+03
    -16.679  0.2179E+02  0.1709E+03
    -16.665  0.2144E+02  0.1712E+03
    -16.651  0.2115E+02  0.1715E+03
    -16.637  0.2090E+02  0.1718E+03
    -16.623  0.2072E+02  0.1721E+03
    -16.609  0.2060E+02  0.1724E+03
    -16.595  0.2055E+02  0.1727E+03
    -16.581  0.2056E+02  0.1729E+03
    -16.567  0.2064E+02  0.1732E+03
    -16.553  0.2079E+02  0.1735E+03
    -16.539  0.2099E+02  0.1738E+03
    -16.525  0.2125E+02  0.1741E+03
    -16.511  0.2156E+02  0.1744E+03
    -16.497  0.2190E+02  0.1747E+03
    -16.483  0.2229E+02  0.1750E+03
    -16.469  0.2269E+02  0.1754E+03
    -16.455  0.2312E+02  0.1757E+03
    -16.441  0.2355E+02  0.1760E+03
    -16.427  0.2399E+02  0.1763E+03
    -16.413  0.2443E+02  0.1767E+03
    -16.399  0.2485E+02  0.1770E+03
    -16.385  0.2526E+02  0.1774E+03
    -16.371  0.2566E+02  0.1777E+03
    -16.357  0.2603E+02  0.1781E+03
    -16.343  0.2638E+02  0.1785E+03
    -16.329  0.2671E+02  0.1789E+03
    -16.315  0.2700E+02  0.1792E+03
    -16.301  0.2728E+02  0.1796E+03
    -16.287  0.2752E+02  0.1800E+03
    -16.273  0.2774E+02  0.1804E+03
    -16.259  0.2793E+02  0.1808E+03
    -16.245  0.2810E+02  0.1812E+03
    -16.231  0.2826E+02  0.1816E+03
    -16.217  0.2839E+02  0.1820E+03
    -16.203  0.2852E+02  0.1824E+03
    -16.189  0.2863E+02  0.1828E+03
    -16.175  0.2873E+02  0.1832E+03
    -16.161  0.2884E+02  0.1836E+03
    -16.147  0.2893E+02  0.1840E+03
    -16.133  0.2903E+02  0.1844E+03
    -16.119  0.2913E+02  0.1848E+03
    -16.105  0.2924E+02  0.1852E+03
    -16.091  0.2934E+02  0.1856E+03
    -16.077  0.2945E+02  0.1860E+03
    -16.063  0.2956E+02  0.1864E+03
    -16.049  0.2966E+02  0.1869E+03
    -16.035  0.2977E+02  0.1873E+03
    -16.021  0.2987E+02  0.1877E+03
    -16.007  0.2996E+02  0.1881E+03
    -15.993  0.3004E+02  0.1885E+03
    -15.979  0.3011E+02  0.1890E+03
    -15.965  0.3016E+02  0.1894E+03
    -15.951  0.3019E+02  0.1898E+03
    -15.937  0.3020E+02  0.1902E+03
    -15.923  0.3018E+02  0.1906E+03
    -15.909  0.3014E+02  0.1911E+03
    -15.895  0.3008E+02  0.1915E+03
    -15.881  0.3000E+02  0.1919E+03
    -15.867  0.2989E+02  0.1923E+03
    -15.853  0.2976E+02  0.1927E+03
    -15.839  0.2962E+02  0.1932E+03
    -15.825  0.2946E+02  0.1936E+03
    -15.811  0.2930E+02  0.1940E+03
    -15.797  0.2913E+02  0.1944E+03
    -15.783  0.2896E+02  0.1948E+03
    -15.768  0.2880E+02  0.1952E+03
    -15.754  0.2865E+02  0.1956E+03
    -15.740  0.2851E+02  0.1960E+03
    -15.726  0.2840E+02  0.1964E+03
    -15.712  0.2831E+02  0.1968E+03
    -15.698  0.2825E+02  0.1972E+03
    -15.684  0.2822E+02  0.1976E+03
    -15.670  0.2823E+02  0.1980E+03
    -15.656  0.2828E+02  0.1984E+03
    -15.642  0.2838E+02  0.1988E+03
    -15.628  0.2851E+02  0.1992E+03
    -15.614  0.2870E+02  0.1996E+03
    -15.600  0.2892E+02  0.2000E+03
    -15.586  0.2919E+02  0.2004E+03
    -15.572  0.2950E+02  0.2008E+03
    -15.558  0.2985E+02  0.2012E+03
    -15.544  0.3023E+02  0.2017E+03
    -15.530  0.3064E+02  0.2021E+03
    -15.516  0.3108E+02  0.2025E+03
    -15.502  0.3153E+02  0.2030E+03
    -15.488  0.3200E+02  0.2034E+03
    -15.474  0.3248E+02  0.2039E+03
    -15.460  0.3295E+02  0.2043E+03
    -15.446  0.3342E+02  0.2048E+03
    -15.432  0.3387E+02  0.2053E+03
    -15.418  0.3431E+02  0.2057E+03
    -15.404  0.3473E+02  0.2062E+03
    -15.390  0.3513E+02  0.2067E+03
    -15.376  0.3550E+02  0.2072E+03
    -15.362  0.3584E+02  0.2077E+03
    -15.348  0.3615E+02  0.2082E+03
    -15.334  0.3644E+02  0.2087E+03
    -15.320  0.3670E+02  0.2093E+03
    -15.306  0.3694E+02  0.2098E+03
    -15.292  0.3716E+02  0.2103E+03
    -15.278  0.3735E+02  0.2108E+03
    -15.264  0.3754E+02  0.2113E+03
    -15.250  0.3770E+02  0.2119E+03
    -15.236  0.3786E+02  0.2124E+03
    -15.222  0.3800E+02  0.2129E+03
    -15.208  0.3814E+02  0.2135E+03
    -15.194  0.3827E+02  0.2140E+03
    -15.180  0.3839E+02  0.2145E+03
    -15.166  0.3850E+02  0.2151E+03
    -15.152  0.3860E+02  0.2156E+03
    -15.138  0.3869E+02  0.2162E+03
    -15.124  0.3877E+02  0.2167E+03
    -15.110  0.3884E+02  0.2173E+03
    -15.096  0.3889E+02  0.2178E+03
    -15.082  0.3892E+02  0.2183E+03
    -15.068  0.3894E+02  0.2189E+03
    -15.054  0.3894E+02  0.2194E+03
    -15.040  0.3891E+02  0.2200E+03
    -15.026  0.3886E+02  0.2205E+03
    -15.012  0.3878E+02  0.2211E+03
    -14.998  0.3868E+02  0.2216E+03
    -14.984  0.3855E+02  0.2221E+03
    -14.970  0.3840E+02  0.2227E+03
    -14.956  0.3821E+02  0.2232E+03
    -14.942  0.3800E+02  0.2238E+03
    -14.928  0.3776E+02  0.2243E+03
    -14.914  0.3750E+02  0.2248E+03
    -14.900  0.3721E+02  0.2253E+03
    -14.886  0.3690E+02  0.2258E+03
    -14.872  0.3656E+02  0.2264E+03
    -14.858  0.3620E+02  0.2269E+03
    -14.844  0.3583E+02  0.2274E+03
    -14.830  0.3544E+02  0.2279E+03
    -14.816  0.3503E+02  0.2284E+03
    -14.802  0.3462E+02  0.2288E+03
    -14.788  0.3420E+02  0.2293E+03
    -14.774  0.3377E+02  0.2298E+03
    -14.760  0.3334E+02  0.2303E+03
    -14.746  0.3292E+02  0.2307E+03
    -14.732  0.3250E+02  0.2312E+03
    -14.718  0.3210E+02  0.2316E+03
    -14.704  0.3170E+02  0.2321E+03
    -14.690  0.3133E+02  0.2325E+03
    -14.676  0.3098E+02  0.2329E+03
    -14.662  0.3065E+02  0.2334E+03
    -14.648  0.3036E+02  0.2338E+03
    -14.634  0.3010E+02  0.2342E+03
    -14.620  0.2987E+02  0.2346E+03
    -14.606  0.2968E+02  0.2351E+03
    -14.592  0.2953E+02  0.2355E+03
    -14.578  0.2942E+02  0.2359E+03
    -14.564  0.2934E+02  0.2363E+03
    -14.550  0.2931E+02  0.2367E+03
    -14.536  0.2931E+02  0.2371E+03
    -14.522  0.2934E+02  0.2375E+03
    -14.508  0.2940E+02  0.2379E+03
    -14.494  0.2949E+02  0.2383E+03
    -14.480  0.2959E+02  0.2388E+03
    -14.466  0.2972E+02  0.2392E+03
    -14.452  0.2985E+02  0.2396E+03
    -14.438  0.2999E+02  0.2400E+03
    -14.424  0.3012E+02  0.2404E+03
    -14.410  0.3026E+02  0.2409E+03
    -14.395  0.3038E+02  0.2413E+03
    -14.381  0.3050E+02  0.2417E+03
    -14.367  0.3061E+02  0.2421E+03
    -14.353  0.3070E+02  0.2426E+03
    -14.339  0.3078E+02  0.2430E+03
    -14.325  0.3085E+02  0.2434E+03
    -14.311  0.3091E+02  0.2439E+03
    -14.297  0.3096E+02  0.2443E+03
    -14.283  0.3099E+02  0.2447E+03
    -14.269  0.3103E+02  0.2452E+03
    -14.255  0.3106E+02  0.2456E+03
    -14.241  0.3109E+02  0.2460E+03
    -14.227  0.3112E+02  0.2465E+03
    -14.213  0.3114E+02  0.2469E+03
    -14.199  0.3117E+02  0.2474E+03
    -14.185  0.3121E+02  0.2478E+03
    -14.171  0.3124E+02  0.2482E+03
    -14.157  0.3128E+02  0.2487E+03
    -14.143  0.3131E+02  0.2491E+03
    -14.129  0.3135E+02  0.2495E+03
    -14.115  0.3139E+02  0.2500E+03
    -14.101  0.3144E+02  0.2504E+03
    -14.087  0.3148E+02  0.2509E+03
    -14.073  0.3152E+02  0.2513E+03
    -14.059  0.3156E+02  0.2517E+03
    -14.045  0.3161E+02  0.2522E+03
    -14.031  0.3166E+02  0.2526E+03
    -14.017  0.3171E+02  0.2531E+03
    -14.003  0.3176E+02  0.2535E+03
    -13.989  0.3182E+02  0.2540E+03
    -13.975  0.3188E+02  0.2544E+03
    -13.961  0.3195E+02  0.2549E+03
    -13.947  0.3202E+02  0.2553E+03
    -13.933  0.3209E+02  0.2558E+03
    -13.919  0.3217E+02  0.2562E+03
    -13.905  0.3226E+02  0.2567E+03
    -13.891  0.3234E+02  0.2571E+03
    -13.877  0.3242E+02  0.2576E+03
    -13.863  0.3250E+02  0.2580E+03
    -13.849  0.3256E+02  0.2585E+03
    -13.835  0.3262E+02  0.2589E+03
    -13.821  0.3266E+02  0.2594E+03
    -13.807  0.3268E+02  0.2599E+03
    -13.793  0.3269E+02  0.2603E+03
    -13.779  0.3267E+02  0.2608E+03
    -13.765  0.3262E+02  0.2612E+03
    -13.751  0.3255E+02  0.2617E+03
    -13.737  0.3245E+02  0.2621E+03
    -13.723  0.3233E+02  0.2626E+03
    -13.709  0.3219E+02  0.2630E+03
    -13.695  0.3202E+02  0.2635E+03
    -13.681  0.3185E+02  0.2639E+03
    -13.667  0.3166E+02  0.2644E+03
    -13.653  0.3148E+02  0.2648E+03
    -13.639  0.3129E+02  0.2653E+03
    -13.625  0.3111E+02  0.2657E+03
    -13.611  0.3095E+02  0.2661E+03
    -13.597  0.3080E+02  0.2666E+03
    -13.583  0.3068E+02  0.2670E+03
    -13.569  0.3059E+02  0.2674E+03
    -13.555  0.3053E+02  0.2678E+03
    -13.541  0.3050E+02  0.2683E+03
    -13.527  0.3050E+02  0.2687E+03
    -13.513  0.3053E+02  0.2691E+03
    -13.499  0.3060E+02  0.2696E+03
    -13.485  0.3069E+02  0.2700E+03
    -13.471  0.3081E+02  0.2704E+03
    -13.457  0.3095E+02  0.2709E+03
    -13.443  0.3111E+02  0.2713E+03
    -13.429  0.3128E+02  0.2717E+03
    -13.415  0.3146E+02  0.2722E+03
    -13.401  0.3164E+02  0.2726E+03
    -13.387  0.3182E+02  0.2731E+03
    -13.373  0.3199E+02  0.2735E+03
    -13.359  0.3215E+02  0.2740E+03
    -13.345  0.3229E+02  0.2744E+03
    -13.331  0.3241E+02  0.2749E+03
    -13.317  0.3251E+02  0.2753E+03
    -13.303  0.3258E+02  0.2758E+03
    -13.289  0.3261E+02  0.2762E+03
    -13.275  0.3262E+02  0.2767E+03
    -13.261  0.3258E+02  0.2771E+03
    -13.247  0.3251E+02  0.2776E+03
    -13.233  0.3241E+02  0.2781E+03
    -13.219  0.3227E+02  0.2785E+03
    -13.205  0.3210E+02  0.2790E+03
    -13.191  0.3190E+02  0.2794E+03
    -13.177  0.3169E+02  0.2798E+03
    -13.163  0.3146E+02  0.2803E+03
    -13.149  0.3122E+02  0.2807E+03
    -13.135  0.3098E+02  0.2812E+03
    -13.121  0.3075E+02  0.2816E+03
    -13.107  0.3053E+02  0.2820E+03
    -13.093  0.3034E+02  0.2824E+03
    -13.079  0.3017E+02  0.2829E+03
    -13.065  0.3004E+02  0.2833E+03
    -13.051  0.2994E+02  0.2837E+03
    -13.037  0.2989E+02  0.2841E+03
    -13.022  0.2988E+02  0.2845E+03
    -13.008  0.2991E+02  0.2850E+03
    -12.994  0.2999E+02  0.2854E+03
    -12.980  0.3011E+02  0.2858E+03
    -12.966  0.3027E+02  0.2862E+03
    -12.952  0.3047E+02  0.2867E+03
    -12.938  0.3070E+02  0.2871E+03
    -12.924  0.3096E+02  0.2875E+03
    -12.910  0.3126E+02  0.2880E+03
    -12.896  0.3158E+02  0.2884E+03
    -12.882  0.3191E+02  0.2888E+03
    -12.868  0.3227E+02  0.2893E+03
    -12.854  0.3264E+02  0.2898E+03
    -12.840  0.3302E+02  0.2902E+03
    -12.826  0.3341E+02  0.2907E+03
    -12.812  0.3381E+02  0.2912E+03