 139 139   0   0
  0.4761712E+02  0.2023440E-08  0.1635527E-08  0.2000000E-08  0.5000000E-15
  1.000000000000000E-004
  CAR 
 unknown system                          
      3.66893107    -24.08073231 2000     -3.54939808      1.00000000
    -24.081  0.0000E+00  0.0000E+00
    -24.067  0.0000E+00  0.0000E+00
    -24.053  0.0000E+00  0.0000E+00
    -24.039  0.0000E+00  0.0000E+00
    -24.025  0.0000E+00  0.0000E+00
    -24.011  0.0000E+00  0.0000E+00
    -23.997  0.0000E+00  0.0000E+00
    -23.984  0.0000E+00  0.0000E+00
    -23.970  0.0000E+00  0.0000E+00
    -23.956  0.0000E+00  0.0000E+00
    -23.942  0.0000E+00  0.0000E+00
    -23.928  0.0000E+00  0.0000E+00
    -23.914  0.0000E+00  0.0000E+00
    -23.900  0.0000E+00  0.0000E+00
    -23.886  0.0000E+00  0.0000E+00
    -23.873  0.0000E+00  0.0000E+00
    -23.859  0.0000E+00  0.0000E+00
    -23.845  0.0000E+00  0.0000E+00
    -23.831  0.0000E+00  0.0000E+00
    -23.817  0.0000E+00  0.0000E+00
    -23.803  0.0000E+00  0.0000E+00
    -23.789  0.0000E+00  0.0000E+00
    -23.775  0.0000E+00  0.0000E+00
    -23.761  0.0000E+00  0.0000E+00
    -23.748  0.0000E+00  0.0000E+00
    -23.734  0.0000E+00  0.0000E+00
    -23.720  0.0000E+00  0.0000E+00
    -23.706  0.0000E+00  0.0000E+00
    -23.692  0.0000E+00  0.0000E+00
    -23.678  0.0000E+00  0.0000E+00
    -23.664  0.0000E+00  0.0000E+00
    -23.650  0.0000E+00  0.0000E+00
    -23.637  0.0000E+00  0.0000E+00
    -23.623  0.0000E+00  0.0000E+00
    -23.609  0.0000E+00  0.0000E+00
    -23.595  0.0000E+00  0.0000E+00
    -23.581  0.0000E+00  0.0000E+00
    -23.567  0.0000E+00  0.0000E+00
    -23.553  0.0000E+00  0.0000E+00
    -23.539  0.0000E+00  0.0000E+00
    -23.525  0.0000E+00  0.0000E+00
    -23.512  0.0000E+00  0.0000E+00
    -23.498  0.0000E+00  0.0000E+00
    -23.484  0.0000E+00  0.0000E+00
    -23.470  0.0000E+00  0.0000E+00
    -23.456  0.0000E+00  0.0000E+00
    -23.442  0.0000E+00  0.0000E+00
    -23.428  0.0000E+00  0.0000E+00
    -23.414  0.0000E+00  0.0000E+00
    -23.401  0.0000E+00  0.0000E+00
    -23.387  0.0000E+00  0.0000E+00
    -23.373  0.0000E+00  0.0000E+00
    -23.359  0.0000E+00  0.0000E+00
    -23.345  0.0000E+00  0.0000E+00
    -23.331  0.0000E+00  0.0000E+00
    -23.317  0.0000E+00  0.0000E+00
    -23.303  0.0000E+00  0.0000E+00
    -23.289  0.0000E+00  0.0000E+00
    -23.276  0.0000E+00  0.0000E+00
    -23.262  0.4443E-14  0.6168E-16
    -23.248  0.3555E-14  0.1110E-15
    -23.234  0.1600E-13  0.3331E-15
    -23.220  0.2666E-13  0.7031E-15
    -23.206  0.5954E-13  0.1530E-14
    -23.192  0.1289E-12  0.3318E-14
    -23.178  0.2861E-12  0.7290E-14
    -23.165  0.6096E-12  0.1575E-13
    -23.151  0.1293E-11  0.3370E-13
    -23.137  0.2724E-11  0.7151E-13
    -23.123  0.5673E-11  0.1503E-12
    -23.109  0.1171E-10  0.3128E-12
    -23.095  0.2393E-10  0.6450E-12
    -23.081  0.4844E-10  0.1317E-11
    -23.067  0.9712E-10  0.2666E-11
    -23.053  0.1929E-09  0.5343E-11
    -23.040  0.3793E-09  0.1061E-10
    -23.026  0.7388E-09  0.2086E-10
    -23.012  0.1425E-08  0.4065E-10
    -22.998  0.2723E-08  0.7845E-10
    -22.984  0.5154E-08  0.1500E-09
    -22.970  0.9659E-08  0.2841E-09
    -22.956  0.1793E-07  0.5330E-09
    -22.942  0.3297E-07  0.9906E-09
    -22.929  0.6003E-07  0.1824E-08
    -22.915  0.1083E-06  0.3327E-08
    -22.901  0.1934E-06  0.6011E-08
    -22.887  0.3421E-06  0.1076E-07
    -22.873  0.5994E-06  0.1908E-07
    -22.859  0.1040E-05  0.3352E-07
    -22.845  0.1788E-05  0.5834E-07
    -22.831  0.3043E-05  0.1006E-06
    -22.817  0.5131E-05  0.1718E-06
    -22.804  0.8567E-05  0.2907E-06
    -22.790  0.1417E-04  0.4874E-06
    -22.776  0.2321E-04  0.8096E-06
    -22.762  0.3765E-04  0.1332E-05
    -22.748  0.6049E-04  0.2172E-05
    -22.734  0.9627E-04  0.3508E-05
    -22.720  0.1517E-03  0.5615E-05
    -22.706  0.2369E-03  0.8903E-05
    -22.693  0.3662E-03  0.1399E-04
    -22.679  0.5608E-03  0.2177E-04
    -22.665  0.8505E-03  0.3358E-04
    -22.651  0.1277E-02  0.5131E-04
    -22.637  0.1901E-02  0.7769E-04
    -22.623  0.2800E-02  0.1166E-03
    -22.609  0.4087E-02  0.1733E-03
    -22.595  0.5908E-02  0.2553E-03
    -22.582  0.8458E-02  0.3727E-03
    -22.568  0.1199E-01  0.5392E-03
    -22.554  0.1684E-01  0.7730E-03
    -22.540  0.2343E-01  0.1098E-02
    -22.526  0.3228E-01  0.1546E-02
    -22.512  0.4405E-01  0.2158E-02
    -22.498  0.5954E-01  0.2984E-02
    -22.484  0.7971E-01  0.4091E-02
    -22.470  0.1057E+00  0.5558E-02
    -22.457  0.1388E+00  0.7485E-02
    -22.443  0.1806E+00  0.9992E-02
    -22.429  0.2327E+00  0.1322E-01
    -22.415  0.2971E+00  0.1735E-01
    -22.401  0.3757E+00  0.2256E-01
    -22.387  0.4706E+00  0.2909E-01
    -22.373  0.5839E+00  0.3720E-01
    -22.359  0.7178E+00  0.4716E-01
    -22.346  0.8742E+00  0.5930E-01
    -22.332  0.1055E+01  0.7394E-01
    -22.318  0.1261E+01  0.9145E-01
    -22.304  0.1494E+01  0.1122E+00
    -22.290  0.1754E+01  0.1365E+00
    -22.276  0.2041E+01  0.1649E+00
    -22.262  0.2354E+01  0.1975E+00
    -22.248  0.2690E+01  0.2349E+00
    -22.234  0.3049E+01  0.2772E+00
    -22.221  0.3427E+01  0.3248E+00
    -22.207  0.3820E+01  0.3778E+00
    -22.193  0.4223E+01  0.4364E+00
    -22.179  0.4633E+01  0.5008E+00
    -22.165  0.5045E+01  0.5708E+00
    -22.151  0.5454E+01  0.6465E+00
    -22.137  0.5857E+01  0.7278E+00
    -22.123  0.6249E+01  0.8146E+00
    -22.110  0.6627E+01  0.9066E+00
    -22.096  0.6991E+01  0.1004E+01
    -22.082  0.7338E+01  0.1105E+01
    -22.068  0.7669E+01  0.1212E+01
    -22.054  0.7985E+01  0.1323E+01
    -22.040  0.8288E+01  0.1438E+01
    -22.026  0.8582E+01  0.1557E+01
    -22.012  0.8871E+01  0.1680E+01
    -21.998  0.9157E+01  0.1807E+01
    -21.985  0.9447E+01  0.1938E+01
    -21.971  0.9744E+01  0.2074E+01
    -21.957  0.1005E+02  0.2213E+01
    -21.943  0.1038E+02  0.2357E+01
    -21.929  0.1072E+02  0.2506E+01
    -21.915  0.1108E+02  0.2660E+01
    -21.901  0.1146E+02  0.2819E+01
    -21.887  0.1186E+02  0.2984E+01
    -21.874  0.1229E+02  0.3154E+01
    -21.860  0.1273E+02  0.3331E+01
    -21.846  0.1319E+02  0.3514E+01
    -21.832  0.1366E+02  0.3703E+01
    -21.818  0.1413E+02  0.3900E+01
    -21.804  0.1461E+02  0.4102E+01
    -21.790  0.1508E+02  0.4312E+01
    -21.776  0.1555E+02  0.4528E+01
    -21.762  0.1600E+02  0.4750E+01
    -21.749  0.1642E+02  0.4978E+01
    -21.735  0.1682E+02  0.5211E+01
    -21.721  0.1719E+02  0.5450E+01
    -21.707  0.1752E+02  0.5693E+01
    -21.693  0.1780E+02  0.5940E+01
    -21.679  0.1805E+02  0.6191E+01
    -21.665  0.1824E+02  0.6444E+01
    -21.651  0.1840E+02  0.6699E+01
    -21.638  0.1850E+02  0.6956E+01
    -21.624  0.1857E+02  0.7214E+01
    -21.610  0.1859E+02  0.7472E+01
    -21.596  0.1858E+02  0.7730E+01
    -21.582  0.1854E+02  0.7987E+01
    -21.568  0.1849E+02  0.8244E+01
    -21.554  0.1842E+02  0.8500E+01
    -21.540  0.1834E+02  0.8754E+01
    -21.526  0.1827E+02  0.9008E+01
    -21.513  0.1821E+02  0.9261E+01
    -21.499  0.1816E+02  0.9513E+01
    -21.485  0.1814E+02  0.9764E+01
    -21.471  0.1814E+02  0.1002E+02
    -21.457  0.1818E+02  0.1027E+02
    -21.443  0.1824E+02  0.1052E+02
    -21.429  0.1835E+02  0.1078E+02
    -21.415  0.1848E+02  0.1103E+02
    -21.402  0.1864E+02  0.1129E+02
    -21.388  0.1883E+02  0.1155E+02
    -21.374  0.1903E+02  0.1182E+02
    -21.360  0.1926E+02  0.1208E+02
    -21.346  0.1949E+02  0.1236E+02
    -21.332  0.1972E+02  0.1263E+02
    -21.318  0.1995E+02  0.1291E+02
    -21.304  0.2016E+02  0.1319E+02
    -21.290  0.2036E+02  0.1347E+02
    -21.277  0.2054E+02  0.1375E+02
    -21.263  0.2070E+02  0.1404E+02
    -21.249  0.2082E+02  0.1433E+02
    -21.235  0.2092E+02  0.1462E+02
    -21.221  0.2099E+02  0.1491E+02
    -21.207  0.2103E+02  0.1520E+02
    -21.193  0.2104E+02  0.1550E+02
    -21.179  0.2103E+02  0.1579E+02
    -21.166  0.2099E+02  0.1608E+02
    -21.152  0.2094E+02  0.1637E+02
    -21.138  0.2089E+02  0.1666E+02
    -21.124  0.2082E+02  0.1695E+02
    -21.110  0.2076E+02  0.1724E+02
    -21.096  0.2071E+02  0.1752E+02
    -21.082  0.2066E+02  0.1781E+02
    -21.068  0.2063E+02  0.1810E+02
    -21.055  0.2062E+02  0.1838E+02
    -21.041  0.2063E+02  0.1867E+02
    -21.027  0.2066E+02  0.1896E+02
    -21.013  0.2071E+02  0.1924E+02
    -20.999  0.2078E+02  0.1953E+02
    -20.985  0.2086E+02  0.1982E+02
    -20.971  0.2096E+02  0.2011E+02
    -20.957  0.2108E+02  0.2041E+02
    -20.943  0.2119E+02  0.2070E+02
    -20.930  0.2131E+02  0.2100E+02
    -20.916  0.2142E+02  0.2129E+02
    -20.902  0.2153E+02  0.2159E+02
    -20.888  0.2162E+02  0.2189E+02
    -20.874  0.2170E+02  0.2219E+02
    -20.860  0.2176E+02  0.2250E+02
    -20.846  0.2180E+02  0.2280E+02
    -20.832  0.2182E+02  0.2310E+02
    -20.819  0.2182E+02  0.2340E+02
    -20.805  0.2180E+02  0.2371E+02
    -20.791  0.2175E+02  0.2401E+02
    -20.777  0.2169E+02  0.2431E+02
    -20.763  0.2161E+02  0.2461E+02
    -20.749  0.2152E+02  0.2491E+02
    -20.735  0.2142E+02  0.2521E+02
    -20.721  0.2132E+02  0.2550E+02
    -20.707  0.2122E+02  0.2580E+02
    -20.694  0.2113E+02  0.2609E+02
    -20.680  0.2104E+02  0.2638E+02
    -20.666  0.2097E+02  0.2667E+02
    -20.652  0.2092E+02  0.2696E+02
    -20.638  0.2089E+02  0.2725E+02
    -20.624  0.2088E+02  0.2754E+02
    -20.610  0.2090E+02  0.2783E+02
    -20.596  0.2095E+02  0.2812E+02
    -20.583  0.2102E+02  0.2842E+02
    -20.569  0.2112E+02  0.2871E+02
    -20.555  0.2123E+02  0.2900E+02
    -20.541  0.2137E+02  0.2930E+02
    -20.527  0.2152E+02  0.2960E+02
    -20.513  0.2169E+02  0.2990E+02
    -20.499  0.2186E+02  0.3020E+02
    -20.485  0.2202E+02  0.3051E+02
    -20.471  0.2218E+02  0.3082E+02
    -20.458  0.2233E+02  0.3113E+02
    -20.444  0.2246E+02  0.3144E+02
    -20.430  0.2257E+02  0.3175E+02
    -20.416  0.2266E+02  0.3207E+02
    -20.402  0.2271E+02  0.3238E+02
    -20.388  0.2273E+02  0.3270E+02
    -20.374  0.2273E+02  0.3301E+02
    -20.360  0.2268E+02  0.3333E+02
    -20.347  0.2261E+02  0.3364E+02
    -20.333  0.2250E+02  0.3395E+02
    -20.319  0.2237E+02  0.3427E+02
    -20.305  0.2221E+02  0.3457E+02
    -20.291  0.2202E+02  0.3488E+02
    -20.277  0.2182E+02  0.3518E+02
    -20.263  0.2160E+02  0.3548E+02
    -20.249  0.2137E+02  0.3578E+02
    -20.235  0.2113E+02  0.3607E+02
    -20.222  0.2089E+02  0.3636E+02
    -20.208  0.2066E+02  0.3665E+02
    -20.194  0.2042E+02  0.3693E+02
    -20.180  0.2020E+02  0.3721E+02
    -20.166  0.1999E+02  0.3749E+02
    -20.152  0.1979E+02  0.3777E+02
    -20.138  0.1962E+02  0.3804E+02
    -20.124  0.1946E+02  0.3831E+02
    -20.111  0.1933E+02  0.3858E+02
    -20.097  0.1922E+02  0.3884E+02
    -20.083  0.1914E+02  0.3911E+02
    -20.069  0.1908E+02  0.3937E+02
    -20.055  0.1905E+02  0.3964E+02
    -20.041  0.1905E+02  0.3990E+02
    -20.027  0.1907E+02  0.4017E+02
    -20.013  0.1912E+02  0.4043E+02
    -19.999  0.1920E+02  0.4070E+02
    -19.986  0.1930E+02  0.4097E+02
    -19.972  0.1942E+02  0.4124E+02
    -19.958  0.1956E+02  0.4151E+02
    -19.944  0.1972E+02  0.4178E+02
    -19.930  0.1990E+02  0.4206E+02
    -19.916  0.2009E+02  0.4234E+02
    -19.902  0.2030E+02  0.4262E+02
    -19.888  0.2052E+02  0.4290E+02
    -19.875  0.2075E+02  0.4319E+02
    -19.861  0.2098E+02  0.4348E+02
    -19.847  0.2122E+02  0.4378E+02
    -19.833  0.2147E+02  0.4408E+02
    -19.819  0.2171E+02  0.4438E+02
    -19.805  0.2195E+02  0.4468E+02
    -19.791  0.2219E+02  0.4499E+02
    -19.777  0.2242E+02  0.4530E+02
    -19.764  0.2265E+02  0.4562E+02
    -19.750  0.2286E+02  0.4593E+02
    -19.736  0.2306E+02  0.4625E+02
    -19.722  0.2325E+02  0.4658E+02
    -19.708  0.2342E+02  0.4690E+02
    -19.694  0.2358E+02  0.4723E+02
    -19.680  0.2371E+02  0.4756E+02
    -19.666  0.2382E+02  0.4789E+02
    -19.652  0.2391E+02  0.4822E+02
    -19.639  0.2398E+02  0.4855E+02
    -19.625  0.2402E+02  0.4889E+02
    -19.611  0.2404E+02  0.4922E+02
    -19.597  0.2403E+02  0.4955E+02
    -19.583  0.2400E+02  0.4989E+02
    -19.569  0.2395E+02  0.5022E+02
    -19.555  0.2388E+02  0.5055E+02
    -19.541  0.2380E+02  0.5088E+02
    -19.528  0.2370E+02  0.5121E+02
    -19.514  0.2359E+02  0.5154E+02
    -19.500  0.2348E+02  0.5186E+02
    -19.486  0.2337E+02  0.5219E+02
    -19.472  0.2326E+02  0.5251E+02
    -19.458  0.2315E+02  0.5283E+02
    -19.444  0.2306E+02  0.5315E+02
    -19.430  0.2298E+02  0.5347E+02
    -19.416  0.2292E+02  0.5379E+02
    -19.403  0.2289E+02  0.5411E+02
    -19.389  0.2287E+02  0.5442E+02
    -19.375  0.2288E+02  0.5474E+02
    -19.361  0.2292E+02  0.5506E+02
    -19.347  0.2298E+02  0.5538E+02
    -19.333  0.2306E+02  0.5570E+02
    -19.319  0.2317E+02  0.5602E+02
    -19.305  0.2330E+02  0.5634E+02
    -19.292  0.2345E+02  0.5667E+02
    -19.278  0.2361E+02  0.5700E+02
    -19.264  0.2378E+02  0.5733E+02
    -19.250  0.2395E+02  0.5766E+02
    -19.236  0.2413E+02  0.5800E+02
    -19.222  0.2430E+02  0.5833E+02
    -19.208  0.2447E+02  0.5867E+02
    -19.194  0.2462E+02  0.5901E+02
    -19.180  0.2476E+02  0.5936E+02
    -19.167  0.2488E+02  0.5970E+02
    -19.153  0.2498E+02  0.6005E+02
    -19.139  0.2506E+02  0.6040E+02
    -19.125  0.2512E+02  0.6075E+02
    -19.111  0.2516E+02  0.6110E+02
    -19.097  0.2518E+02  0.6145E+02
    -19.083  0.2519E+02  0.6180E+02
    -19.069  0.2518E+02  0.6215E+02
    -19.056  0.2515E+02  0.6249E+02
    -19.042  0.2512E+02  0.6284E+02
    -19.028  0.2507E+02  0.6319E+02
    -19.014  0.2503E+02  0.6354E+02
    -19.000  0.2498E+02  0.6389E+02
    -18.986  0.2492E+02  0.6423E+02
    -18.972  0.2487E+02  0.6458E+02
    -18.958  0.2481E+02  0.6492E+02
    -18.944  0.2475E+02  0.6526E+02
    -18.931  0.2469E+02  0.6561E+02
    -18.917  0.2462E+02  0.6595E+02
    -18.903  0.2454E+02  0.6629E+02
    -18.889  0.2445E+02  0.6663E+02
    -18.875  0.2435E+02  0.6697E+02
    -18.861  0.2423E+02  0.6730E+02
    -18.847  0.2409E+02  0.6764E+02
    -18.833  0.2392E+02  0.6797E+02
    -18.820  0.2373E+02  0.6830E+02
    -18.806  0.2352E+02  0.6863E+02
    -18.792  0.2329E+02  0.6895E+02
    -18.778  0.2303E+02  0.6927E+02
    -18.764  0.2276E+02  0.6958E+02
    -18.750  0.2247E+02  0.6990E+02
    -18.736  0.2216E+02  0.7020E+02
    -18.722  0.2186E+02  0.7051E+02
    -18.708  0.2155E+02  0.7081E+02
    -18.695  0.2125E+02  0.7110E+02
    -18.681  0.2095E+02  0.7139E+02
    -18.667  0.2067E+02  0.7168E+02
    -18.653  0.2041E+02  0.7196E+02
    -18.639  0.2018E+02  0.7224E+02
    -18.625  0.1997E+02  0.7252E+02
    -18.611  0.1978E+02  0.7279E+02
    -18.597  0.1963E+02  0.7307E+02
    -18.584  0.1950E+02  0.7334E+02
    -18.570  0.1940E+02  0.7361E+02
    -18.556  0.1932E+02  0.7388E+02
    -18.542  0.1927E+02  0.7414E+02
    -18.528  0.1925E+02  0.7441E+02
    -18.514  0.1924E+02  0.7468E+02
    -18.500  0.1925E+02  0.7494E+02
    -18.486  0.1928E+02  0.7521E+02
    -18.472  0.1933E+02  0.7548E+02
    -18.459  0.1939E+02  0.7575E+02
    -18.445  0.1946E+02  0.7602E+02
    -18.431  0.1955E+02  0.7629E+02
    -18.417  0.1965E+02  0.7656E+02
    -18.403  0.1977E+02  0.7684E+02
    -18.389  0.1991E+02  0.7711E+02
    -18.375  0.2005E+02  0.7739E+02
    -18.361  0.2022E+02  0.7767E+02
    -18.348  0.2040E+02  0.7796E+02
    -18.334  0.2060E+02  0.7824E+02
    -18.320  0.2082E+02  0.7853E+02
    -18.306  0.2105E+02  0.7882E+02
    -18.292  0.2130E+02  0.7912E+02
    -18.278  0.2156E+02  0.7942E+02
    -18.264  0.2183E+02  0.7972E+02
    -18.250  0.2212E+02  0.8003E+02
    -18.237  0.2242E+02  0.8034E+02
    -18.223  0.2272E+02  0.8066E+02
    -18.209  0.2304E+02  0.8098E+02
    -18.195  0.2335E+02  0.8130E+02
    -18.181  0.2366E+02  0.8163E+02
    -18.167  0.2397E+02  0.8196E+02
    -18.153  0.2428E+02  0.8230E+02
    -18.139  0.2457E+02  0.8264E+02
    -18.125  0.2485E+02  0.8298E+02
    -18.112  0.2511E+02  0.8333E+02
    -18.098  0.2535E+02  0.8368E+02
    -18.084  0.2556E+02  0.8404E+02
    -18.070  0.2575E+02  0.8440E+02
    -18.056  0.2590E+02  0.8476E+02
    -18.042  0.2602E+02  0.8512E+02
    -18.028  0.2611E+02  0.8548E+02
    -18.014  0.2617E+02  0.8584E+02
    -18.001  0.2619E+02  0.8621E+02
    -17.987  0.2617E+02  0.8657E+02
    -17.973  0.2613E+02  0.8693E+02
    -17.959  0.2605E+02  0.8729E+02
    -17.945  0.2596E+02  0.8765E+02
    -17.931  0.2584E+02  0.8801E+02
    -17.917  0.2571E+02  0.8837E+02
    -17.903  0.2556E+02  0.8873E+02
    -17.889  0.2542E+02  0.8908E+02
    -17.876  0.2527E+02  0.8943E+02
    -17.862  0.2512E+02  0.8978E+02
    -17.848  0.2499E+02  0.9012E+02
    -17.834  0.2486E+02  0.9047E+02
    -17.820  0.2475E+02  0.9081E+02
    -17.806  0.2466E+02  0.9116E+02
    -17.792  0.2458E+02  0.9150E+02
    -17.778  0.2452E+02  0.9184E+02
    -17.765  0.2447E+02  0.9218E+02
    -17.751  0.2444E+02  0.9252E+02
    -17.737  0.2442E+02  0.9286E+02
    -17.723  0.2441E+02  0.9319E+02
    -17.709  0.2440E+02  0.9353E+02
    -17.695  0.2440E+02  0.9387E+02
    -17.681  0.2439E+02  0.9421E+02
    -17.667  0.2438E+02  0.9455E+02
    -17.653  0.2437E+02  0.9489E+02
    -17.640  0.2434E+02  0.9522E+02
    -17.626  0.2431E+02  0.9556E+02
    -17.612  0.2426E+02  0.9590E+02
    -17.598  0.2420E+02  0.9623E+02
    -17.584  0.2413E+02  0.9657E+02
    -17.570  0.2406E+02  0.9690E+02
    -17.556  0.2397E+02  0.9724E+02
    -17.542  0.2387E+02  0.9757E+02
    -17.529  0.2377E+02  0.9790E+02
    -17.515  0.2367E+02  0.9823E+02
    -17.501  0.2356E+02  0.9855E+02
    -17.487  0.2345E+02  0.9888E+02
    -17.473  0.2334E+02  0.9920E+02
    -17.459  0.2324E+02  0.9953E+02
    -17.445  0.2314E+02  0.9985E+02
    -17.431  0.2305E+02  0.1002E+03
    -17.417  0.2297E+02  0.1005E+03
    -17.404  0.2290E+02  0.1008E+03
    -17.390  0.2285E+02  0.1011E+03
    -17.376  0.2281E+02  0.1014E+03
    -17.362  0.2278E+02  0.1018E+03
    -17.348  0.2278E+02  0.1021E+03
    -17.334  0.2280E+02  0.1024E+03
    -17.320  0.2284E+02  0.1027E+03
    -17.306  0.2290E+02  0.1030E+03
    -17.293  0.2298E+02  0.1033E+03
    -17.279  0.2309E+02  0.1037E+03
    -17.265  0.2321E+02  0.1040E+03
    -17.251  0.2335E+02  0.1043E+03
    -17.237  0.2351E+02  0.1046E+03
    -17.223  0.2367E+02  0.1050E+03
    -17.209  0.2384E+02  0.1053E+03
    -17.195  0.2400E+02  0.1056E+03
    -17.181  0.2415E+02  0.1060E+03
    -17.168  0.2428E+02  0.1063E+03
    -17.154  0.2438E+02  0.1066E+03
    -17.140  0.2446E+02  0.1070E+03
    -17.126  0.2449E+02  0.1073E+03
    -17.112  0.2448E+02  0.1077E+03
    -17.098  0.2443E+02  0.1080E+03
    -17.084  0.2432E+02  0.1083E+03
    -17.070  0.2416E+02  0.1087E+03
    -17.057  0.2396E+02  0.1090E+03
    -17.043  0.2370E+02  0.1093E+03
    -17.029  0.2341E+02  0.1097E+03
    -17.015  0.2307E+02  0.1100E+03
    -17.001  0.2270E+02  0.1103E+03
    -16.987  0.2232E+02  0.1106E+03
    -16.973  0.2191E+02  0.1109E+03
    -16.959  0.2150E+02  0.1112E+03
    -16.946  0.2110E+02  0.1115E+03
    -16.932  0.2070E+02  0.1118E+03
    -16.918  0.2032E+02  0.1121E+03
    -16.904  0.1997E+02  0.1123E+03
    -16.890  0.1965E+02  0.1126E+03
    -16.876  0.1936E+02  0.1129E+03
    -16.862  0.1911E+02  0.1131E+03
    -16.848  0.1889E+02  0.1134E+03
    -16.834  0.1872E+02  0.1137E+03
    -16.821  0.1858E+02  0.1139E+03
    -16.807  0.1848E+02  0.1142E+03
    -16.793  0.1841E+02  0.1144E+03
    -16.779  0.1837E+02  0.1147E+03
    -16.765  0.1837E+02  0.1150E+03
    -16.751  0.1838E+02  0.1152E+03
    -16.737  0.1842E+02  0.1155E+03
    -16.723  0.1848E+02  0.1157E+03
    -16.710  0.1857E+02  0.1160E+03
    -16.696  0.1867E+02  0.1162E+03
    -16.682  0.1878E+02  0.1165E+03
    -16.668  0.1892E+02  0.1168E+03
    -16.654  0.1907E+02  0.1170E+03
    -16.640  0.1924E+02  0.1173E+03
    -16.626  0.1942E+02  0.1176E+03
    -16.612  0.1962E+02  0.1178E+03
    -16.598  0.1983E+02  0.1181E+03
    -16.585  0.2006E+02  0.1184E+03
    -16.571  0.2029E+02  0.1187E+03
    -16.557  0.2054E+02  0.1190E+03
    -16.543  0.2079E+02  0.1192E+03
    -16.529  0.2105E+02  0.1195E+03
    -16.515  0.2130E+02  0.1198E+03
    -16.501  0.2155E+02  0.1201E+03
    -16.487  0.2178E+02  0.1204E+03
    -16.474  0.2201E+02  0.1207E+03
    -16.460  0.2222E+02  0.1210E+03
    -16.446  0.2242E+02  0.1214E+03
    -16.432  0.2259E+02  0.1217E+03
    -16.418  0.2275E+02  0.1220E+03
    -16.404  0.2289E+02  0.1223E+03
    -16.390  0.2300E+02  0.1226E+03
    -16.376  0.2310E+02  0.1229E+03
    -16.362  0.2318E+02  0.1233E+03
    -16.349  0.2325E+02  0.1236E+03
    -16.335  0.2331E+02  0.1239E+03
    -16.321  0.2336E+02  0.1242E+03
    -16.307  0.2341E+02  0.1246E+03
    -16.293  0.2345E+02  0.1249E+03
    -16.279  0.2350E+02  0.1252E+03
    -16.265  0.2354E+02  0.1255E+03
    -16.251  0.2359E+02  0.1259E+03
    -16.238  0.2364E+02  0.1262E+03
    -16.224  0.2369E+02  0.1265E+03
    -16.210  0.2374E+02  0.1269E+03
    -16.196  0.2378E+02  0.1272E+03
    -16.182  0.2382E+02  0.1275E+03
    -16.168  0.2385E+02  0.1278E+03
    -16.154  0.2387E+02  0.1282E+03
    -16.140  0.2387E+02  0.1285E+03
    -16.126  0.2387E+02  0.1288E+03
    -16.113  0.2384E+02  0.1292E+03
    -16.099  0.2380E+02  0.1295E+03
    -16.085  0.2375E+02  0.1298E+03
    -16.071  0.2369E+02  0.1302E+03
    -16.057  0.2361E+02  0.1305E+03
    -16.043  0.2354E+02  0.1308E+03
    -16.029  0.2346E+02  0.1311E+03
    -16.015  0.2338E+02  0.1315E+03
    -16.002  0.2332E+02  0.1318E+03
    -15.988  0.2327E+02  0.1321E+03
    -15.974  0.2324E+02  0.1324E+03
    -15.960  0.2323E+02  0.1328E+03
    -15.946  0.2325E+02  0.1331E+03
    -15.932  0.2328E+02  0.1334E+03
    -15.918  0.2335E+02  0.1337E+03
    -15.904  0.2343E+02  0.1341E+03
    -15.890  0.2353E+02  0.1344E+03
    -15.877  0.2365E+02  0.1347E+03
    -15.863  0.2377E+02  0.1350E+03
    -15.849  0.2390E+02  0.1354E+03
    -15.835  0.2402E+02  0.1357E+03
    -15.821  0.2413E+02  0.1360E+03
    -15.807  0.2423E+02  0.1364E+03
    -15.793  0.2430E+02  0.1367E+03
    -15.779  0.2435E+02  0.1370E+03
    -15.766  0.2437E+02  0.1374E+03
    -15.752  0.2435E+02  0.1377E+03
    -15.738  0.2431E+02  0.1381E+03
    -15.724  0.2425E+02  0.1384E+03
    -15.710  0.2415E+02  0.1387E+03
    -15.696  0.2404E+02  0.1391E+03
    -15.682  0.2392E+02  0.1394E+03
    -15.668  0.2379E+02  0.1397E+03
    -15.654  0.2365E+02  0.1401E+03
    -15.641  0.2352E+02  0.1404E+03
    -15.627  0.2341E+02  0.1407E+03
    -15.613  0.2331E+02  0.1410E+03
    -15.599  0.2323E+02  0.1414E+03
    -15.585  0.2317E+02  0.1417E+03
    -15.571  0.2314E+02  0.1420E+03
    -15.557  0.2313E+02  0.1423E+03
    -15.543  0.2314E+02  0.1426E+03
    -15.530  0.2317E+02  0.1430E+03
    -15.516  0.2321E+02  0.1433E+03
    -15.502  0.2326E+02  0.1436E+03
    -15.488  0.2331E+02  0.1439E+03
    -15.474  0.2336E+02  0.1443E+03
    -15.460  0.2339E+02  0.1446E+03
    -15.446  0.2341E+02  0.1449E+03
    -15.432  0.2340E+02  0.1452E+03
    -15.419  0.2335E+02  0.1456E+03
    -15.405  0.2327E+02  0.1459E+03
    -15.391  0.2316E+02  0.1462E+03
    -15.377  0.2300E+02  0.1465E+03
    -15.363  0.2281E+02  0.1468E+03
    -15.349  0.2258E+02  0.1471E+03
    -15.335  0.2232E+02  0.1475E+03
    -15.321  0.2203E+02  0.1478E+03
    -15.307  0.2172E+02  0.1481E+03
    -15.294  0.2140E+02  0.1484E+03
    -15.280  0.2108E+02  0.1487E+03
    -15.266  0.2076E+02  0.1489E+03
    -15.252  0.2045E+02  0.1492E+03
    -15.238  0.2016E+02  0.1495E+03
    -15.224  0.1990E+02  0.1498E+03
    -15.210  0.1968E+02  0.1501E+03
    -15.196  0.1949E+02  0.1503E+03
    -15.183  0.1935E+02  0.1506E+03
    -15.169  0.1925E+02  0.1509E+03
    -15.155  0.1920E+02  0.1511E+03
    -15.141  0.1918E+02  0.1514E+03
    -15.127  0.1921E+02  0.1517E+03
    -15.113  0.1928E+02  0.1519E+03
    -15.099  0.1939E+02  0.1522E+03
    -15.085  0.1952E+02  0.1525E+03
    -15.071  0.1968E+02  0.1527E+03
    -15.058  0.1985E+02  0.1530E+03
    -15.044  0.2004E+02  0.1533E+03
    -15.030  0.2023E+02  0.1536E+03
    -15.016  0.2043E+02  0.1539E+03
    -15.002  0.2063E+02  0.1541E+03
    -14.988  0.2082E+02  0.1544E+03
    -14.974  0.2100E+02  0.1547E+03
    -14.960  0.2117E+02  0.1550E+03
    -14.947  0.2133E+02  0.1553E+03
    -14.933  0.2147E+02  0.1556E+03
    -14.919  0.2159E+02  0.1559E+03
    -14.905  0.2170E+02  0.1562E+03
    -14.891  0.2179E+02  0.1565E+03
    -14.877  0.2186E+02  0.1568E+03
    -14.863  0.2192E+02  0.1571E+03
    -14.849  0.2196E+02  0.1574E+03
    -14.835  0.2200E+02  0.1577E+03
    -14.822  0.2203E+02  0.1580E+03
    -14.808  0.2205E+02  0.1583E+03
    -14.794  0.2207E+02  0.1587E+03
    -14.780  0.2210E+02  0.1590E+03
    -14.766  0.2212E+02  0.1593E+03
    -14.752  0.2215E+02  0.1596E+03
    -14.738  0.2220E+02  0.1599E+03
    -14.724  0.2225E+02  0.1602E+03
    -14.711  0.2231E+02  0.1605E+03
    -14.697  0.2238E+02  0.1608E+03
    -14.683  0.2246E+02  0.1611E+03
    -14.669  0.2256E+02  0.1614E+03
    -14.655  0.2266E+02  0.1618E+03
    -14.641  0.2276E+02  0.1621E+03
    -14.627  0.2287E+02  0.1624E+03
    -14.613  0.2298E+02  0.1627E+03
    -14.599  0.2309E+02  0.1630E+03
    -14.586  0.2319E+02  0.1633E+03
    -14.572  0.2328E+02  0.1637E+03
    -14.558  0.2336E+02  0.1640E+03
    -14.544  0.2343E+02  0.1643E+03
    -14.530  0.2349E+02  0.1646E+03
    -14.516  0.2354E+02  0.1650E+03
    -14.502  0.2357E+02  0.1653E+03
    -14.488  0.2359E+02  0.1656E+03
    -14.475  0.2360E+02  0.1660E+03
    -14.461  0.2360E+02  0.1663E+03
    -14.447  0.2359E+02  0.1666E+03
    -14.433  0.2359E+02  0.1669E+03
    -14.419  0.2358E+02  0.1673E+03
    -14.405  0.2358E+02  0.1676E+03
    -14.391  0.2358E+02  0.1679E+03
    -14.377  0.2359E+02  0.1682E+03
    -14.363  0.2362E+02  0.1686E+03
    -14.350  0.2365E+02  0.1689E+03
    -14.336  0.2370E+02  0.1692E+03
    -14.322  0.2376E+02  0.1696E+03
    -14.308  0.2384E+02  0.1699E+03
    -14.294  0.2393E+02  0.1702E+03
    -14.280  0.2404E+02  0.1706E+03
    -14.266  0.2415E+02  0.1709E+03
    -14.252  0.2428E+02  0.1712E+03
    -14.239  0.2441E+02  0.1716E+03
    -14.225  0.2455E+02  0.1719E+03
    -14.211  0.2470E+02  0.1723E+03
    -14.197  0.2484E+02  0.1726E+03
    -14.183  0.2498E+02  0.1729E+03
    -14.169  0.2511E+02  0.1733E+03
    -14.155  0.2524E+02  0.1736E+03
    -14.141  0.2535E+02  0.1740E+03
    -14.128  0.2546E+02  0.1744E+03
    -14.114  0.2554E+02  0.1747E+03
    -14.100  0.2561E+02  0.1751E+03
    -14.086  0.2567E+02  0.1754E+03
    -14.072  0.2570E+02  0.1758E+03
    -14.058  0.2571E+02  0.1761E+03
    -14.044  0.2569E+02  0.1765E+03
    -14.030  0.2566E+02  0.1768E+03
    -14.016  0.2560E+02  0.1772E+03
    -14.003  0.2553E+02  0.1776E+03
    -13.989  0.2544E+02  0.1779E+03
    -13.975  0.2533E+02  0.1783E+03
    -13.961  0.2520E+02  0.1786E+03
    -13.947  0.2507E+02  0.1790E+03
    -13.933  0.2493E+02  0.1793E+03
    -13.919  0.2479E+02  0.1796E+03
    -13.905  0.2464E+02  0.1800E+03
    -13.892  0.2450E+02  0.1803E+03
    -13.878  0.2437E+02  0.1807E+03
    -13.864  0.2426E+02  0.1810E+03
    -13.850  0.2415E+02  0.1813E+03
    -13.836  0.2406E+02  0.1817E+03
    -13.822  0.2400E+02  0.1820E+03
    -13.808  0.2395E+02  0.1823E+03
    -13.794  0.2393E+02  0.1827E+03
    -13.780  0.2393E+02  0.1830E+03
    -13.767  0.2395E+02  0.1833E+03
    -13.753  0.2399E+02  0.1837E+03
    -13.739  0.2406E+02  0.1840E+03
    -13.725  0.2414E+02  0.1843E+03
    -13.711  0.2424E+02  0.1847E+03
    -13.697  0.2435E+02  0.1850E+03
    -13.683  0.2447E+02  0.1854E+03
    -13.669  0.2461E+02  0.1857E+03
    -13.656  0.2474E+02  0.1860E+03
    -13.642  0.2488E+02  0.1864E+03
    -13.628  0.2501E+02  0.1867E+03
    -13.614  0.2515E+02  0.1871E+03
    -13.600  0.2527E+02  0.1874E+03
    -13.586  0.2539E+02  0.1878E+03
    -13.572  0.2550E+02  0.1881E+03
    -13.558  0.2559E+02  0.1885E+03
    -13.544  0.2568E+02  0.1888E+03
    -13.531  0.2575E+02  0.1892E+03
    -13.517  0.2581E+02  0.1896E+03
    -13.503  0.2586E+02  0.1899E+03
    -13.489  0.2589E+02  0.1903E+03
    -13.475  0.2591E+02  0.1906E+03
    -13.461  0.2592E+02  0.1910E+03
    -13.447  0.2591E+02  0.1914E+03
    -13.433  0.2589E+02  0.1917E+03
    -13.420  0.2585E+02  0.1921E+03
    -13.406  0.2580E+02  0.1924E+03
    -13.392  0.2573E+02  0.1928E+03
    -13.378  0.2564E+02  0.1932E+03
    -13.364  0.2553E+02  0.1935E+03
    -13.350  0.2541E+02  0.1939E+03
    -13.336  0.2527E+02  0.1942E+03
    -13.322  0.2510E+02  0.1946E+03
    -13.308  0.2492E+02  0.1949E+03
    -13.295  0.2472E+02  0.1952E+03
    -13.281  0.2449E+02  0.1956E+03
    -13.267  0.2425E+02  0.1959E+03
    -13.253  0.2400E+02  0.1963E+03
    -13.239  0.2373E+02  0.1966E+03
    -13.225  0.2345E+02  0.1969E+03
    -13.211  0.2316E+02  0.1972E+03
    -13.197  0.2286E+02  0.1975E+03
    -13.184  0.2256E+02  0.1979E+03
    -13.170  0.2226E+02  0.1982E+03
    -13.156  0.2197E+02  0.1985E+03
    -13.142  0.2169E+02  0.1988E+03
    -13.128  0.2142E+02  0.1991E+03
    -13.114  0.2117E+02  0.1994E+03
    -13.100  0.2095E+02  0.1997E+03
    -13.086  0.2075E+02  0.1999E+03
    -13.072  0.2059E+02  0.2002E+03
    -13.059  0.2046E+02  0.2005E+03
    -13.045  0.2037E+02  0.2008E+03
    -13.031  0.2032E+02  0.2011E+03
    -13.017  0.2032E+02  0.2014E+03
    -13.003  0.2035E+02  0.2016E+03
    -12.989  0.2043E+02  0.2019E+03
    -12.975  0.2054E+02  0.2022E+03
    -12.961  0.2069E+02  0.2025E+03
    -12.948  0.2088E+02  0.2028E+03
    -12.934  0.2109E+02  0.2031E+03
    -12.920  0.2133E+02  0.2034E+03
    -12.906  0.2158E+02  0.2037E+03
    -12.892  0.2185E+02  0.2040E+03
    -12.878  0.2212E+02  0.2043E+03
    -12.864  0.2240E+02  0.2046E+03
    -12.850  0.2268E+02  0.2049E+03
    -12.836  0.2296E+02  0.2052E+03
    -12.823  0.2323E+02  0.2056E+03
    -12.809  0.2350E+02  0.2059E+03
    -12.795  0.2375E+02  0.2062E+03
    -12.781  0.2400E+02  0.2065E+03
    -12.767  0.2424E+02  0.2069E+03
    -12.753  0.2448E+02  0.2072E+03
    -12.739  0.2471E+02  0.2076E+03
    -12.725  0.2494E+02  0.2079E+03
    -12.712  0.2516E+02  0.2083E+03
    -12.698  0.2538E+02  0.2086E+03
    -12.684  0.2560E+02  0.2090E+03
    -12.670  0.2581E+02  0.2093E+03
    -12.656  0.2602E+02  0.2097E+03
    -12.642  0.2622E+02  0.2101E+03
    -12.628  0.2642E+02  0.2104E+03