 139 139   0   0
  0.2638225E+02  0.2130000E-08  0.1721659E-08  0.1000000E-08  0.5000000E-15
  1.000000000000000E-004
  CAR 
 unknown system                          
      5.85999154    -24.97795930 2000     -1.07494351      1.00000000
    -24.978  0.0000E+00  0.0000E+00
    -24.963  0.0000E+00  0.0000E+00
    -24.947  0.0000E+00  0.0000E+00
    -24.932  0.0000E+00  0.0000E+00
    -24.916  0.0000E+00  0.0000E+00
    -24.901  0.0000E+00  0.0000E+00
    -24.885  0.0000E+00  0.0000E+00
    -24.870  0.0000E+00  0.0000E+00
    -24.855  0.0000E+00  0.0000E+00
    -24.839  0.0000E+00  0.0000E+00
    -24.824  0.0000E+00  0.0000E+00
    -24.808  0.0000E+00  0.0000E+00
    -24.793  0.0000E+00  0.0000E+00
    -24.777  0.0000E+00  0.0000E+00
    -24.762  0.0000E+00  0.0000E+00
    -24.747  0.0000E+00  0.0000E+00
    -24.731  0.0000E+00  0.0000E+00
    -24.716  0.0000E+00  0.0000E+00
    -24.700  0.0000E+00  0.0000E+00
    -24.685  0.0000E+00  0.0000E+00
    -24.669  0.0000E+00  0.0000E+00
    -24.654  0.0000E+00  0.0000E+00
    -24.639  0.0000E+00  0.0000E+00
    -24.623  0.0000E+00  0.0000E+00
    -24.608  0.0000E+00  0.0000E+00
    -24.592  0.0000E+00  0.0000E+00
    -24.577  0.0000E+00  0.0000E+00
    -24.561  0.0000E+00  0.0000E+00
    -24.546  0.0000E+00  0.0000E+00
    -24.531  0.0000E+00  0.0000E+00
    -24.515  0.0000E+00  0.0000E+00
    -24.500  0.0000E+00  0.0000E+00
    -24.484  0.0000E+00  0.0000E+00
    -24.469  0.0000E+00  0.0000E+00
    -24.453  0.0000E+00  0.0000E+00
    -24.438  0.0000E+00  0.0000E+00
    -24.423  0.0000E+00  0.0000E+00
    -24.407  0.0000E+00  0.0000E+00
    -24.392  0.0000E+00  0.0000E+00
    -24.376  0.0000E+00  0.0000E+00
    -24.361  0.0000E+00  0.0000E+00
    -24.345  0.0000E+00  0.0000E+00
    -24.330  0.0000E+00  0.0000E+00
    -24.315  0.0000E+00  0.0000E+00
    -24.299  0.0000E+00  0.0000E+00
    -24.284  0.0000E+00  0.0000E+00
    -24.268  0.0000E+00  0.0000E+00
    -24.253  0.0000E+00  0.0000E+00
    -24.237  0.0000E+00  0.0000E+00
    -24.222  0.0000E+00  0.0000E+00
    -24.207  0.0000E+00  0.0000E+00
    -24.191  0.0000E+00  0.0000E+00
    -24.176  0.0000E+00  0.0000E+00
    -24.160  0.7197E-14  0.1110E-15
    -24.145  0.0000E+00  0.1110E-15
    -24.129  0.1439E-13  0.3331E-15
    -24.114  0.4318E-13  0.9992E-15
    -24.099  0.8636E-13  0.2331E-14
    -24.083  0.2015E-12  0.5440E-14
    -24.068  0.4894E-12  0.1299E-13
    -24.052  0.1119E-11  0.3026E-13
    -24.037  0.2566E-11  0.6985E-13
    -24.022  0.5808E-11  0.1594E-12
    -24.006  0.1297E-10  0.3596E-12
    -23.991  0.2865E-10  0.8016E-12
    -23.975  0.6252E-10  0.1766E-11
    -23.960  0.1348E-09  0.3846E-11
    -23.944  0.2873E-09  0.8279E-11
    -23.929  0.6051E-09  0.1761E-10
    -23.914  0.1259E-08  0.3704E-10
    -23.898  0.2589E-08  0.7698E-10
    -23.883  0.5261E-08  0.1581E-09
    -23.867  0.1056E-07  0.3211E-09
    -23.852  0.2096E-07  0.6445E-09
    -23.836  0.4111E-07  0.1279E-08
    -23.821  0.7965E-07  0.2507E-08
    -23.806  0.1525E-06  0.4860E-08
    -23.790  0.2886E-06  0.9312E-08
    -23.775  0.5396E-06  0.1764E-07
    -23.759  0.9970E-06  0.3302E-07
    -23.744  0.1820E-05  0.6110E-07
    -23.728  0.3284E-05  0.1118E-06
    -23.713  0.5856E-05  0.2021E-06
    -23.698  0.1032E-04  0.3613E-06
    -23.682  0.1796E-04  0.6384E-06
    -23.667  0.3091E-04  0.1115E-05
    -23.651  0.5255E-04  0.1926E-05
    -23.636  0.8829E-04  0.3288E-05
    -23.620  0.1466E-03  0.5549E-05
    -23.605  0.2405E-03  0.9259E-05
    -23.590  0.3899E-03  0.1527E-04
    -23.574  0.6246E-03  0.2491E-04
    -23.559  0.9889E-03  0.4017E-04
    -23.543  0.1547E-02  0.6403E-04
    -23.528  0.2392E-02  0.1009E-03
    -23.512  0.3654E-02  0.1573E-03
    -23.497  0.5517E-02  0.2424E-03
    -23.482  0.8230E-02  0.3694E-03
    -23.466  0.1213E-01  0.5566E-03
    -23.451  0.1768E-01  0.8293E-03
    -23.435  0.2545E-01  0.1222E-02
    -23.420  0.3621E-01  0.1781E-02
    -23.404  0.5091E-01  0.2566E-02
    -23.389  0.7074E-01  0.3657E-02
    -23.374  0.9713E-01  0.5156E-02
    -23.358  0.1318E+00  0.7189E-02
    -23.343  0.1767E+00  0.9915E-02
    -23.327  0.2342E+00  0.1353E-01
    -23.312  0.3068E+00  0.1826E-01
    -23.296  0.3971E+00  0.2439E-01
    -23.281  0.5081E+00  0.3223E-01
    -23.266  0.6424E+00  0.4214E-01
    -23.250  0.8029E+00  0.5452E-01
    -23.235  0.9919E+00  0.6982E-01
    -23.219  0.1211E+01  0.8851E-01
    -23.204  0.1462E+01  0.1111E+00
    -23.188  0.1745E+01  0.1380E+00
    -23.173  0.2059E+01  0.1698E+00
    -23.158  0.2403E+01  0.2068E+00
    -23.142  0.2773E+01  0.2496E+00
    -23.127  0.3166E+01  0.2985E+00
    -23.111  0.3575E+01  0.3536E+00
    -23.096  0.3995E+01  0.4152E+00
    -23.080  0.4419E+01  0.4834E+00
    -23.065  0.4839E+01  0.5581E+00
    -23.050  0.5248E+01  0.6390E+00
    -23.034  0.5639E+01  0.7260E+00
    -23.019  0.6006E+01  0.8187E+00
    -23.003  0.6343E+01  0.9165E+00
    -22.988  0.6647E+01  0.1019E+01
    -22.972  0.6915E+01  0.1126E+01
    -22.957  0.7146E+01  0.1236E+01
    -22.942  0.7341E+01  0.1349E+01
    -22.926  0.7500E+01  0.1465E+01
    -22.911  0.7625E+01  0.1583E+01
    -22.895  0.7718E+01  0.1702E+01
    -22.880  0.7783E+01  0.1822E+01
    -22.865  0.7821E+01  0.1942E+01
    -22.849  0.7833E+01  0.2063E+01
    -22.834  0.7820E+01  0.2184E+01
    -22.818  0.7781E+01  0.2304E+01
    -22.803  0.7715E+01  0.2423E+01
    -22.787  0.7620E+01  0.2540E+01
    -22.772  0.7493E+01  0.2656E+01
    -22.757  0.7333E+01  0.2769E+01
    -22.741  0.7137E+01  0.2879E+01
    -22.726  0.6904E+01  0.2986E+01
    -22.710  0.6634E+01  0.3088E+01
    -22.695  0.6328E+01  0.3186E+01
    -22.679  0.5990E+01  0.3278E+01
    -22.664  0.5622E+01  0.3365E+01
    -22.649  0.5230E+01  0.3445E+01
    -22.633  0.4820E+01  0.3520E+01
    -22.618  0.4400E+01  0.3588E+01
    -22.602  0.3976E+01  0.3649E+01
    -22.587  0.3556E+01  0.3704E+01
    -22.571  0.3148E+01  0.3752E+01
    -22.556  0.2756E+01  0.3795E+01
    -22.541  0.2387E+01  0.3832E+01
    -22.525  0.2044E+01  0.3863E+01
    -22.510  0.1732E+01  0.3890E+01
    -22.494  0.1450E+01  0.3912E+01
    -22.479  0.1201E+01  0.3931E+01
    -22.463  0.9826E+00  0.3946E+01
    -22.448  0.7950E+00  0.3958E+01
    -22.433  0.6357E+00  0.3968E+01
    -22.417  0.5025E+00  0.3976E+01
    -22.402  0.3926E+00  0.3982E+01
    -22.386  0.3031E+00  0.3987E+01
    -22.371  0.2313E+00  0.3990E+01
    -22.355  0.1744E+00  0.3993E+01
    -22.340  0.1300E+00  0.3995E+01
    -22.325  0.9576E-01  0.3996E+01
    -22.309  0.6970E-01  0.3997E+01
    -22.294  0.5014E-01  0.3998E+01
    -22.278  0.3564E-01  0.3999E+01
    -22.263  0.2504E-01  0.3999E+01
    -22.247  0.1738E-01  0.3999E+01
    -22.232  0.1192E-01  0.4000E+01
    -22.217  0.8084E-02  0.4000E+01
    -22.201  0.5415E-02  0.4000E+01
    -22.186  0.3585E-02  0.4000E+01
    -22.170  0.2346E-02  0.4000E+01
    -22.155  0.1517E-02  0.4000E+01
    -22.139  0.9698E-03  0.4000E+01
    -22.124  0.6137E-03  0.4000E+01
    -22.109  0.3854E-03  0.4000E+01
    -22.093  0.2421E-03  0.4000E+01
    -22.078  0.1554E-03  0.4000E+01
    -22.062  0.1074E-03  0.4000E+01
    -22.047  0.8750E-04  0.4000E+01
    -22.031  0.9148E-04  0.4000E+01
    -22.016  0.1202E-03  0.4000E+01
    -22.001  0.1799E-03  0.4000E+01
    -21.985  0.2834E-03  0.4000E+01
    -21.970  0.4518E-03  0.4000E+01
    -21.954  0.7179E-03  0.4000E+01
    -21.939  0.1131E-02  0.4000E+01
    -21.923  0.1762E-02  0.4000E+01
    -21.908  0.2714E-02  0.4000E+01
    -21.893  0.4131E-02  0.4000E+01
    -21.877  0.6214E-02  0.4000E+01
    -21.862  0.9238E-02  0.4000E+01
    -21.846  0.1357E-01  0.4001E+01
    -21.831  0.1970E-01  0.4001E+01
    -21.815  0.2826E-01  0.4001E+01
    -21.800  0.4007E-01  0.4002E+01
    -21.785  0.5613E-01  0.4003E+01
    -21.769  0.7771E-01  0.4004E+01
    -21.754  0.1063E+00  0.4006E+01
    -21.738  0.1438E+00  0.4008E+01
    -21.723  0.1921E+00  0.4011E+01
    -21.708  0.2536E+00  0.4015E+01
    -21.692  0.3309E+00  0.4020E+01
    -21.677  0.4268E+00  0.4026E+01
    -21.661  0.5440E+00  0.4035E+01
    -21.646  0.6852E+00  0.4045E+01
    -21.630  0.8531E+00  0.4059E+01
    -21.615  0.1050E+01  0.4075E+01
    -21.600  0.1277E+01  0.4094E+01
    -21.584  0.1535E+01  0.4118E+01
    -21.569  0.1825E+01  0.4146E+01
    -21.553  0.2145E+01  0.4179E+01
    -21.538  0.2492E+01  0.4218E+01
    -21.522  0.2863E+01  0.4262E+01
    -21.507  0.3254E+01  0.4312E+01
    -21.492  0.3658E+01  0.4369E+01
    -21.476  0.4070E+01  0.4431E+01
    -21.461  0.4480E+01  0.4501E+01
    -21.445  0.4884E+01  0.4576E+01
    -21.430  0.5272E+01  0.4657E+01
    -21.414  0.5640E+01  0.4744E+01
    -21.399  0.5982E+01  0.4837E+01
    -21.384  0.6294E+01  0.4934E+01
    -21.368  0.6575E+01  0.5035E+01
    -21.353  0.6824E+01  0.5140E+01
    -21.337  0.7045E+01  0.5249E+01
    -21.322  0.7242E+01  0.5361E+01
    -21.306  0.7420E+01  0.5475E+01
    -21.291  0.7586E+01  0.5592E+01
    -21.276  0.7749E+01  0.5712E+01
    -21.260  0.7917E+01  0.5834E+01
    -21.245  0.8100E+01  0.5959E+01
    -21.229  0.8304E+01  0.6087E+01
    -21.214  0.8539E+01  0.6219E+01
    -21.198  0.8808E+01  0.6355E+01
    -21.183  0.9118E+01  0.6495E+01
    -21.168  0.9471E+01  0.6641E+01
    -21.152  0.9868E+01  0.6794E+01
    -21.137  0.1031E+02  0.6953E+01
    -21.121  0.1080E+02  0.7119E+01
    -21.106  0.1132E+02  0.7294E+01
    -21.090  0.1188E+02  0.7477E+01
    -21.075  0.1247E+02  0.7669E+01
    -21.060  0.1308E+02  0.7871E+01
    -21.044  0.1371E+02  0.8083E+01
    -21.029  0.1434E+02  0.8304E+01
    -21.013  0.1497E+02  0.8535E+01
    -20.998  0.1558E+02  0.8775E+01
    -20.982  0.1617E+02  0.9024E+01
    -20.967  0.1672E+02  0.9282E+01
    -20.952  0.1723E+02  0.9548E+01
    -20.936  0.1769E+02  0.9821E+01
    -20.921  0.1809E+02  0.1010E+02
    -20.905  0.1843E+02  0.1038E+02
    -20.890  0.1870E+02  0.1067E+02
    -20.874  0.1890E+02  0.1096E+02
    -20.859  0.1903E+02  0.1126E+02
    -20.844  0.1911E+02  0.1155E+02
    -20.828  0.1913E+02  0.1185E+02
    -20.813  0.1910E+02  0.1214E+02
    -20.797  0.1903E+02  0.1244E+02
    -20.782  0.1893E+02  0.1273E+02
    -20.766  0.1881E+02  0.1302E+02
    -20.751  0.1868E+02  0.1331E+02
    -20.736  0.1855E+02  0.1359E+02
    -20.720  0.1842E+02  0.1388E+02
    -20.705  0.1830E+02  0.1416E+02
    -20.689  0.1820E+02  0.1444E+02
    -20.674  0.1811E+02  0.1472E+02
    -20.658  0.1803E+02  0.1500E+02
    -20.643  0.1797E+02  0.1527E+02
    -20.628  0.1793E+02  0.1555E+02
    -20.612  0.1790E+02  0.1583E+02
    -20.597  0.1789E+02  0.1610E+02
    -20.581  0.1789E+02  0.1638E+02
    -20.566  0.1790E+02  0.1666E+02
    -20.550  0.1793E+02  0.1693E+02
    -20.535  0.1797E+02  0.1721E+02
    -20.520  0.1802E+02  0.1749E+02
    -20.504  0.1808E+02  0.1777E+02
    -20.489  0.1816E+02  0.1805E+02
    -20.473  0.1826E+02  0.1833E+02
    -20.458  0.1836E+02  0.1861E+02
    -20.443  0.1848E+02  0.1890E+02
    -20.427  0.1860E+02  0.1918E+02
    -20.412  0.1873E+02  0.1947E+02
    -20.396  0.1885E+02  0.1976E+02
    -20.381  0.1898E+02  0.2006E+02
    -20.365  0.1909E+02  0.2035E+02
    -20.350  0.1919E+02  0.2065E+02
    -20.335  0.1928E+02  0.2094E+02
    -20.319  0.1935E+02  0.2124E+02
    -20.304  0.1940E+02  0.2154E+02
    -20.288  0.1944E+02  0.2184E+02
    -20.273  0.1945E+02  0.2214E+02
    -20.257  0.1945E+02  0.2244E+02
    -20.242  0.1944E+02  0.2274E+02
    -20.227  0.1942E+02  0.2304E+02
    -20.211  0.1939E+02  0.2334E+02
    -20.196  0.1937E+02  0.2364E+02
    -20.180  0.1936E+02  0.2394E+02
    -20.165  0.1936E+02  0.2424E+02
    -20.149  0.1938E+02  0.2454E+02
    -20.134  0.1942E+02  0.2484E+02
    -20.119  0.1949E+02  0.2514E+02
    -20.103  0.1958E+02  0.2544E+02
    -20.088  0.1969E+02  0.2574E+02
    -20.072  0.1983E+02  0.2605E+02
    -20.057  0.1999E+02  0.2636E+02
    -20.041  0.2016E+02  0.2667E+02
    -20.026  0.2034E+02  0.2698E+02
    -20.011  0.2052E+02  0.2730E+02
    -19.995  0.2070E+02  0.2762E+02
    -19.980  0.2087E+02  0.2794E+02
    -19.964  0.2103E+02  0.2826E+02
    -19.949  0.2116E+02  0.2859E+02
    -19.933  0.2127E+02  0.2892E+02
    -19.918  0.2135E+02  0.2925E+02
    -19.903  0.2140E+02  0.2958E+02
    -19.887  0.2142E+02  0.2991E+02
    -19.872  0.2141E+02  0.3024E+02
    -19.856  0.2137E+02  0.3057E+02
    -19.841  0.2131E+02  0.3090E+02
    -19.825  0.2123E+02  0.3122E+02
    -19.810  0.2113E+02  0.3155E+02
    -19.795  0.2102E+02  0.3187E+02
    -19.779  0.2091E+02  0.3220E+02
    -19.764  0.2080E+02  0.3252E+02
    -19.748  0.2069E+02  0.3284E+02
    -19.733  0.2059E+02  0.3315E+02
    -19.717  0.2049E+02  0.3347E+02
    -19.702  0.2042E+02  0.3379E+02
    -19.687  0.2036E+02  0.3410E+02
    -19.671  0.2032E+02  0.3441E+02
    -19.656  0.2029E+02  0.3473E+02
    -19.640  0.2029E+02  0.3504E+02
    -19.625  0.2030E+02  0.3535E+02
    -19.609  0.2032E+02  0.3567E+02
    -19.594  0.2036E+02  0.3598E+02
    -19.579  0.2042E+02  0.3629E+02
    -19.563  0.2048E+02  0.3661E+02
    -19.548  0.2056E+02  0.3693E+02
    -19.532  0.2064E+02  0.3725E+02
    -19.517  0.2072E+02  0.3757E+02
    -19.501  0.2082E+02  0.3789E+02
    -19.486  0.2092E+02  0.3821E+02
    -19.471  0.2102E+02  0.3853E+02
    -19.455  0.2112E+02  0.3886E+02
    -19.440  0.2123E+02  0.3919E+02
    -19.424  0.2134E+02  0.3952E+02
    -19.409  0.2145E+02  0.3985E+02
    -19.393  0.2156E+02  0.4018E+02
    -19.378  0.2167E+02  0.4051E+02
    -19.363  0.2177E+02  0.4085E+02
    -19.347  0.2187E+02  0.4119E+02
    -19.332  0.2195E+02  0.4153E+02
    -19.316  0.2202E+02  0.4187E+02
    -19.301  0.2208E+02  0.4221E+02
    -19.286  0.2212E+02  0.4255E+02
    -19.270  0.2214E+02  0.4289E+02
    -19.255  0.2213E+02  0.4323E+02
    -19.239  0.2210E+02  0.4357E+02
    -19.224  0.2204E+02  0.4391E+02
    -19.208  0.2195E+02  0.4425E+02
    -19.193  0.2184E+02  0.4459E+02
    -19.178  0.2171E+02  0.4492E+02
    -19.162  0.2156E+02  0.4525E+02
    -19.147  0.2139E+02  0.4558E+02
    -19.131  0.2120E+02  0.4591E+02
    -19.116  0.2101E+02  0.4624E+02
    -19.100  0.2082E+02  0.4656E+02
    -19.085  0.2064E+02  0.4688E+02
    -19.070  0.2046E+02  0.4719E+02
    -19.054  0.2030E+02  0.4750E+02
    -19.039  0.2016E+02  0.4781E+02
    -19.023  0.2005E+02  0.4812E+02
    -19.008  0.1996E+02  0.4843E+02
    -18.992  0.1991E+02  0.4874E+02
    -18.977  0.1989E+02  0.4905E+02
    -18.962  0.1990E+02  0.4935E+02
    -18.946  0.1995E+02  0.4966E+02
    -18.931  0.2003E+02  0.4997E+02
    -18.915  0.2014E+02  0.5028E+02
    -18.900  0.2028E+02  0.5059E+02
    -18.884  0.2044E+02  0.5091E+02
    -18.869  0.2062E+02  0.5123E+02
    -18.854  0.2081E+02  0.5155E+02
    -18.838  0.2101E+02  0.5187E+02
    -18.823  0.2121E+02  0.5220E+02
    -18.807  0.2141E+02  0.5253E+02
    -18.792  0.2160E+02  0.5286E+02
    -18.776  0.2178E+02  0.5320E+02
    -18.761  0.2195E+02  0.5354E+02
    -18.746  0.2210E+02  0.5388E+02
    -18.730  0.2224E+02  0.5422E+02
    -18.715  0.2235E+02  0.5457E+02
    -18.699  0.2244E+02  0.5491E+02
    -18.684  0.2251E+02  0.5526E+02
    -18.668  0.2256E+02  0.5561E+02
    -18.653  0.2259E+02  0.5596E+02
    -18.638  0.2260E+02  0.5630E+02
    -18.622  0.2259E+02  0.5665E+02
    -18.607  0.2257E+02  0.5700E+02
    -18.591  0.2253E+02  0.5735E+02
    -18.576  0.2249E+02  0.5770E+02
    -18.560  0.2243E+02  0.5804E+02
    -18.545  0.2237E+02  0.5839E+02
    -18.530  0.2231E+02  0.5873E+02
    -18.514  0.2224E+02  0.5907E+02
    -18.499  0.2217E+02  0.5942E+02
    -18.483  0.2211E+02  0.5976E+02
    -18.468  0.2205E+02  0.6010E+02
    -18.452  0.2200E+02  0.6044E+02
    -18.437  0.2195E+02  0.6078E+02
    -18.422  0.2192E+02  0.6111E+02
    -18.406  0.2189E+02  0.6145E+02
    -18.391  0.2187E+02  0.6179E+02
    -18.375  0.2186E+02  0.6213E+02
    -18.360  0.2186E+02  0.6246E+02
    -18.344  0.2187E+02  0.6280E+02
    -18.329  0.2188E+02  0.6314E+02
    -18.314  0.2190E+02  0.6348E+02
    -18.298  0.2193E+02  0.6381E+02
    -18.283  0.2196E+02  0.6415E+02
    -18.267  0.2199E+02  0.6449E+02
    -18.252  0.2202E+02  0.6483E+02
    -18.236  0.2205E+02  0.6517E+02
    -18.221  0.2208E+02  0.6551E+02
    -18.206  0.2211E+02  0.6585E+02
    -18.190  0.2214E+02  0.6620E+02
    -18.175  0.2217E+02  0.6654E+02
    -18.159  0.2221E+02  0.6688E+02
    -18.144  0.2224E+02  0.6722E+02
    -18.129  0.2228E+02  0.6757E+02
    -18.113  0.2231E+02  0.6791E+02
    -18.098  0.2235E+02  0.6826E+02
    -18.082  0.2239E+02  0.6860E+02
    -18.067  0.2242E+02  0.6895E+02
    -18.051  0.2246E+02  0.6929E+02
    -18.036  0.2249E+02  0.6964E+02
    -18.021  0.2251E+02  0.6999E+02
    -18.005  0.2253E+02  0.7034E+02
    -17.990  0.2254E+02  0.7068E+02
    -17.974  0.2254E+02  0.7103E+02
    -17.959  0.2253E+02  0.7138E+02
    -17.943  0.2251E+02  0.7173E+02
    -17.928  0.2247E+02  0.7207E+02
    -17.913  0.2243E+02  0.7242E+02
    -17.897  0.2238E+02  0.7276E+02
    -17.882  0.2232E+02  0.7311E+02
    -17.866  0.2226E+02  0.7345E+02
    -17.851  0.2219E+02  0.7379E+02
    -17.835  0.2211E+02  0.7413E+02
    -17.820  0.2204E+02  0.7447E+02
    -17.805  0.2197E+02  0.7481E+02
    -17.789  0.2190E+02  0.7515E+02
    -17.774  0.2185E+02  0.7549E+02
    -17.758  0.2180E+02  0.7582E+02
    -17.743  0.2176E+02  0.7616E+02
    -17.727  0.2173E+02  0.7650E+02
    -17.712  0.2172E+02  0.7683E+02
    -17.697  0.2173E+02  0.7717E+02
    -17.681  0.2175E+02  0.7750E+02
    -17.666  0.2179E+02  0.7784E+02
    -17.650  0.2184E+02  0.7817E+02
    -17.635  0.2191E+02  0.7851E+02
    -17.619  0.2198E+02  0.7885E+02
    -17.604  0.2207E+02  0.7919E+02
    -17.589  0.2217E+02  0.7953E+02
    -17.573  0.2228E+02  0.7988E+02
    -17.558  0.2239E+02  0.8022E+02
    -17.542  0.2250E+02  0.8057E+02
    -17.527  0.2261E+02  0.8092E+02
    -17.511  0.2272E+02  0.8127E+02
    -17.496  0.2283E+02  0.8162E+02
    -17.481  0.2292E+02  0.8198E+02
    -17.465  0.2301E+02  0.8233E+02
    -17.450  0.2309E+02  0.8269E+02
    -17.434  0.2315E+02  0.8304E+02
    -17.419  0.2320E+02  0.8340E+02
    -17.403  0.2323E+02  0.8376E+02
    -17.388  0.2325E+02  0.8412E+02
    -17.373  0.2324E+02  0.8448E+02
    -17.357  0.2322E+02  0.8484E+02
    -17.342  0.2317E+02  0.8519E+02
    -17.326  0.2309E+02  0.8555E+02
    -17.311  0.2299E+02  0.8590E+02
    -17.295  0.2287E+02  0.8626E+02
    -17.280  0.2272E+02  0.8661E+02
    -17.265  0.2255E+02  0.8695E+02
    -17.249  0.2235E+02  0.8730E+02
    -17.234  0.2214E+02  0.8764E+02
    -17.218  0.2191E+02  0.8798E+02
    -17.203  0.2168E+02  0.8831E+02
    -17.187  0.2145E+02  0.8864E+02
    -17.172  0.2122E+02  0.8897E+02
    -17.157  0.2101E+02  0.8930E+02
    -17.141  0.2082E+02  0.8962E+02
    -17.126  0.2066E+02  0.8994E+02
    -17.110  0.2053E+02  0.9025E+02
    -17.095  0.2044E+02  0.9057E+02
    -17.079  0.2038E+02  0.9088E+02
    -17.064  0.2038E+02  0.9120E+02
    -17.049  0.2041E+02  0.9151E+02
    -17.033  0.2048E+02  0.9183E+02
    -17.018  0.2059E+02  0.9215E+02
    -17.002  0.2073E+02  0.9247E+02
    -16.987  0.2089E+02  0.9279E+02
    -16.972  0.2107E+02  0.9311E+02
    -16.956  0.2125E+02  0.9344E+02
    -16.941  0.2143E+02  0.9377E+02
    -16.925  0.2160E+02  0.9410E+02
    -16.910  0.2175E+02  0.9444E+02
    -16.894  0.2188E+02  0.9478E+02
    -16.879  0.2198E+02  0.9512E+02
    -16.864  0.2206E+02  0.9546E+02
    -16.848  0.2210E+02  0.9580E+02
    -16.833  0.2210E+02  0.9614E+02
    -16.817  0.2209E+02  0.9648E+02
    -16.802  0.2204E+02  0.9682E+02
    -16.786  0.2198E+02  0.9716E+02
    -16.771  0.2191E+02  0.9750E+02
    -16.756  0.2183E+02  0.9783E+02
    -16.740  0.2176E+02  0.9817E+02
    -16.725  0.2169E+02  0.9850E+02
    -16.709  0.2164E+02  0.9884E+02
    -16.694  0.2161E+02  0.9917E+02
    -16.678  0.2161E+02  0.9950E+02
    -16.663  0.2163E+02  0.9984E+02
    -16.648  0.2169E+02  0.1002E+03
    -16.632  0.2176E+02  0.1005E+03
    -16.617  0.2187E+02  0.1008E+03
    -16.601  0.2199E+02  0.1012E+03
    -16.586  0.2214E+02  0.1015E+03
    -16.570  0.2229E+02  0.1019E+03
    -16.555  0.2246E+02  0.1022E+03
    -16.540  0.2262E+02  0.1026E+03
    -16.524  0.2279E+02  0.1029E+03
    -16.509  0.2296E+02  0.1033E+03
    -16.493  0.2312E+02  0.1036E+03
    -16.478  0.2328E+02  0.1040E+03
    -16.462  0.2343E+02  0.1043E+03
    -16.447  0.2357E+02  0.1047E+03
    -16.432  0.2371E+02  0.1051E+03
    -16.416  0.2385E+02  0.1054E+03
    -16.401  0.2399E+02  0.1058E+03
    -16.385  0.2412E+02  0.1062E+03
    -16.370  0.2424E+02  0.1066E+03
    -16.354  0.2436E+02  0.1069E+03
    -16.339  0.2447E+02  0.1073E+03
    -16.324  0.2457E+02  0.1077E+03
    -16.308  0.2466E+02  0.1081E+03
    -16.293  0.2474E+02  0.1085E+03
    -16.277  0.2479E+02  0.1088E+03
    -16.262  0.2483E+02  0.1092E+03
    -16.246  0.2484E+02  0.1096E+03
    -16.231  0.2484E+02  0.1100E+03
    -16.216  0.2482E+02  0.1104E+03
    -16.200  0.2477E+02  0.1108E+03
    -16.185  0.2471E+02  0.1111E+03
    -16.169  0.2464E+02  0.1115E+03
    -16.154  0.2455E+02  0.1119E+03
    -16.138  0.2446E+02  0.1123E+03
    -16.123  0.2435E+02  0.1126E+03
    -16.108  0.2424E+02  0.1130E+03
    -16.092  0.2413E+02  0.1134E+03
    -16.077  0.2401E+02  0.1138E+03
    -16.061  0.2388E+02  0.1141E+03
    -16.046  0.2375E+02  0.1145E+03
    -16.030  0.2361E+02  0.1149E+03
    -16.015  0.2346E+02  0.1152E+03
    -16.000  0.2330E+02  0.1156E+03
    -15.984  0.2312E+02  0.1159E+03
    -15.969  0.2293E+02  0.1163E+03
    -15.953  0.2272E+02  0.1166E+03
    -15.938  0.2249E+02  0.1170E+03
    -15.922  0.2225E+02  0.1173E+03
    -15.907  0.2199E+02  0.1177E+03
    -15.892  0.2171E+02  0.1180E+03
    -15.876  0.2143E+02  0.1183E+03
    -15.861  0.2113E+02  0.1187E+03
    -15.845  0.2083E+02  0.1190E+03
    -15.830  0.2053E+02  0.1193E+03
    -15.815  0.2023E+02  0.1196E+03
    -15.799  0.1993E+02  0.1199E+03
    -15.784  0.1965E+02  0.1202E+03
    -15.768  0.1938E+02  0.1205E+03
    -15.753  0.1913E+02  0.1208E+03
    -15.737  0.1890E+02  0.1211E+03
    -15.722  0.1869E+02  0.1214E+03
    -15.707  0.1850E+02  0.1217E+03
    -15.691  0.1833E+02  0.1220E+03
    -15.676  0.1818E+02  0.1222E+03
    -15.660  0.1804E+02  0.1225E+03
    -15.645  0.1791E+02  0.1228E+03
    -15.629  0.1779E+02  0.1231E+03
    -15.614  0.1768E+02  0.1234E+03
    -15.599  0.1757E+02  0.1236E+03
    -15.583  0.1746E+02  0.1239E+03
    -15.568  0.1734E+02  0.1242E+03
    -15.552  0.1721E+02  0.1244E+03
    -15.537  0.1707E+02  0.1247E+03
    -15.521  0.1692E+02  0.1249E+03
    -15.506  0.1676E+02  0.1252E+03
    -15.491  0.1659E+02  0.1255E+03
    -15.475  0.1640E+02  0.1257E+03
    -15.460  0.1620E+02  0.1260E+03
    -15.444  0.1600E+02  0.1262E+03
    -15.429  0.1579E+02  0.1265E+03
    -15.413  0.1558E+02  0.1267E+03
    -15.398  0.1538E+02  0.1269E+03
    -15.383  0.1518E+02  0.1272E+03
    -15.367  0.1500E+02  0.1274E+03
    -15.352  0.1483E+02  0.1276E+03
    -15.336  0.1468E+02  0.1279E+03
    -15.321  0.1457E+02  0.1281E+03
    -15.305  0.1447E+02  0.1283E+03
    -15.290  0.1441E+02  0.1285E+03
    -15.275  0.1439E+02  0.1287E+03
    -15.259  0.1439E+02  0.1290E+03
    -15.244  0.1443E+02  0.1292E+03
    -15.228  0.1449E+02  0.1294E+03
    -15.213  0.1459E+02  0.1296E+03
    -15.197  0.1472E+02  0.1299E+03
    -15.182  0.1487E+02  0.1301E+03
    -15.167  0.1506E+02  0.1303E+03
    -15.151  0.1527E+02  0.1306E+03
    -15.136  0.1550E+02  0.1308E+03
    -15.120  0.1576E+02  0.1310E+03
    -15.105  0.1605E+02  0.1313E+03
    -15.089  0.1637E+02  0.1315E+03
    -15.074  0.1671E+02  0.1318E+03
    -15.059  0.1708E+02  0.1321E+03
    -15.043  0.1747E+02  0.1323E+03
    -15.028  0.1788E+02  0.1326E+03
    -15.012  0.1831E+02  0.1329E+03
    -14.997  0.1875E+02  0.1332E+03
    -14.981  0.1921E+02  0.1335E+03
    -14.966  0.1966E+02  0.1338E+03
    -14.951  0.2012E+02  0.1341E+03
    -14.935  0.2057E+02  0.1344E+03
    -14.920  0.2101E+02  0.1347E+03
    -14.904  0.2142E+02  0.1351E+03
    -14.889  0.2182E+02  0.1354E+03
    -14.873  0.2219E+02  0.1357E+03
    -14.858  0.2253E+02  0.1361E+03
    -14.843  0.2284E+02  0.1364E+03
    -14.827  0.2312E+02  0.1368E+03
    -14.812  0.2337E+02  0.1372E+03
    -14.796  0.2359E+02  0.1375E+03
    -14.781  0.2379E+02  0.1379E+03
    -14.765  0.2396E+02  0.1383E+03
    -14.750  0.2411E+02  0.1386E+03
    -14.735  0.2425E+02  0.1390E+03
    -14.719  0.2437E+02  0.1394E+03
    -14.704  0.2449E+02  0.1398E+03
    -14.688  0.2460E+02  0.1401E+03
    -14.673  0.2471E+02  0.1405E+03
    -14.658  0.2481E+02  0.1409E+03
    -14.642  0.2491E+02  0.1413E+03
    -14.627  0.2501E+02  0.1417E+03
    -14.611  0.2511E+02  0.1421E+03
    -14.596  0.2520E+02  0.1425E+03
    -14.580  0.2528E+02  0.1428E+03
    -14.565  0.2536E+02  0.1432E+03
    -14.550  0.2543E+02  0.1436E+03
    -14.534  0.2549E+02  0.1440E+03
    -14.519  0.2553E+02  0.1444E+03
    -14.503  0.2556E+02  0.1448E+03
    -14.488  0.2557E+02  0.1452E+03
    -14.472  0.2557E+02  0.1456E+03
    -14.457  0.2555E+02  0.1460E+03
    -14.442  0.2552E+02  0.1464E+03
    -14.426  0.2547E+02  0.1468E+03
    -14.411  0.2541E+02  0.1472E+03
    -14.395  0.2534E+02  0.1476E+03
    -14.380  0.2526E+02  0.1479E+03
    -14.364  0.2517E+02  0.1483E+03
    -14.349  0.2508E+02  0.1487E+03
    -14.334  0.2499E+02  0.1491E+03
    -14.318  0.2489E+02  0.1495E+03
    -14.303  0.2480E+02  0.1499E+03
    -14.287  0.2470E+02  0.1503E+03
    -14.272  0.2459E+02  0.1506E+03
    -14.256  0.2449E+02  0.1510E+03
    -14.241  0.2439E+02  0.1514E+03
    -14.226  0.2428E+02  0.1518E+03
    -14.210  0.2418E+02  0.1521E+03
    -14.195  0.2407E+02  0.1525E+03
    -14.179  0.2396E+02  0.1529E+03
    -14.164  0.2386E+02  0.1532E+03
    -14.148  0.2376E+02  0.1536E+03
    -14.133  0.2367E+02  0.1540E+03
    -14.118  0.2360E+02  0.1543E+03
    -14.102  0.2354E+02  0.1547E+03
    -14.087  0.2349E+02  0.1551E+03
    -14.071  0.2348E+02  0.1554E+03
    -14.056  0.2348E+02  0.1558E+03
    -14.040  0.2352E+02  0.1562E+03
    -14.025  0.2359E+02  0.1565E+03
    -14.010  0.2369E+02  0.1569E+03
    -13.994  0.2382E+02  0.1573E+03
    -13.979  0.2397E+02  0.1576E+03
    -13.963  0.2415E+02  0.1580E+03
    -13.948  0.2434E+02  0.1584E+03
    -13.932  0.2454E+02  0.1587E+03
    -13.917  0.2474E+02  0.1591E+03
    -13.902  0.2493E+02  0.1595E+03
    -13.886  0.2509E+02  0.1599E+03
    -13.871  0.2523E+02  0.1603E+03
    -13.855  0.2534E+02  0.1607E+03
    -13.840  0.2539E+02  0.1611E+03
    -13.824  0.2540E+02  0.1615E+03
    -13.809  0.2536E+02  0.1619E+03
    -13.794  0.2526E+02  0.1622E+03
    -13.778  0.2511E+02  0.1626E+03
    -13.763  0.2490E+02  0.1630E+03
    -13.747  0.2465E+02  0.1634E+03
    -13.732  0.2436E+02  0.1638E+03
    -13.716  0.2404E+02  0.1641E+03
    -13.701  0.2369E+02  0.1645E+03
    -13.686  0.2333E+02  0.1649E+03
    -13.670  0.2297E+02  0.1652E+03
    -13.655  0.2261E+02  0.1656E+03
    -13.639  0.2227E+02  0.1659E+03
    -13.624  0.2196E+02  0.1663E+03
    -13.608  0.2168E+02  0.1666E+03
    -13.593  0.2145E+02  0.1669E+03
    -13.578  0.2126E+02  0.1673E+03
    -13.562  0.2113E+02  0.1676E+03
    -13.547  0.2104E+02  0.1679E+03
    -13.531  0.2101E+02  0.1682E+03
    -13.516  0.2103E+02  0.1685E+03
    -13.501  0.2110E+02  0.1689E+03
    -13.485  0.2120E+02  0.1692E+03
    -13.470  0.2134E+02  0.1695E+03
    -13.454  0.2150E+02  0.1699E+03
    -13.439  0.2167E+02  0.1702E+03
    -13.423  0.2185E+02  0.1705E+03
    -13.408  0.2203E+02  0.1709E+03
    -13.393  0.2219E+02  0.1712E+03
    -13.377  0.2235E+02  0.1716E+03
    -13.362  0.2247E+02  0.1719E+03
    -13.346  0.2258E+02  0.1723E+03
    -13.331  0.2265E+02  0.1726E+03
    -13.315  0.2269E+02  0.1730E+03
    -13.300  0.2269E+02  0.1733E+03
    -13.285  0.2267E+02  0.1737E+03
    -13.269  0.2261E+02  0.1740E+03
    -13.254  0.2253E+02  0.1744E+03
    -13.238  0.2242E+02  0.1747E+03
    -13.223  0.2228E+02  0.1750E+03
    -13.207  0.2213E+02  0.1754E+03
    -13.192  0.2196E+02  0.1757E+03
    -13.177  0.2178E+02  0.1761E+03
    -13.161  0.2159E+02  0.1764E+03
    -13.146  0.2141E+02  0.1767E+03
    -13.130  0.2122E+02  0.1770E+03
    -13.115  0.2105E+02  0.1774E+03
    -13.099  0.2089E+02  0.1777E+03
    -13.084  0.2075E+02  0.1780E+03
    -13.069  0.2064E+02  0.1783E+03
    -13.053  0.2054E+02  0.1787E+03
    -13.038  0.2048E+02  0.1790E+03
    -13.022  0.2044E+02  0.1793E+03
    -13.007  0.2042E+02  0.1796E+03
    -12.991  0.2043E+02  0.1799E+03
    -12.976  0.2046E+02  0.1802E+03
    -12.961  0.2051E+02  0.1805E+03
    -12.945  0.2057E+02  0.1809E+03
    -12.930  0.2063E+02  0.1812E+03
    -12.914  0.2069E+02  0.1815E+03
    -12.899  0.2074E+02  0.1818E+03
    -12.883  0.2078E+02  0.1821E+03
    -12.868  0.2079E+02  0.1825E+03
    -12.853  0.2078E+02  0.1828E+03
    -12.837  0.2074E+02  0.1831E+03
    -12.822  0.2067E+02  0.1834E+03
    -12.806  0.2057E+02  0.1837E+03
    -12.791  0.2044E+02  0.1841E+03
    -12.775  0.2029E+02  0.1844E+03
    -12.760  0.2011E+02  0.1847E+03
    -12.745  0.1992E+02  0.1850E+03
    -12.729  0.1972E+02  0.1853E+03
    -12.714  0.1951E+02  0.1856E+03
    -12.698  0.1932E+02  0.1859E+03
    -12.683  0.1914E+02  0.1862E+03
    -12.667  0.1899E+02  0.1865E+03
    -12.652  0.1886E+02  0.1868E+03
    -12.637  0.1878E+02  0.1871E+03
    -12.621  0.1874E+02  0.1873E+03
    -12.606  0.1874E+02  0.1876E+03
    -12.590  0.1880E+02  0.1879E+03
    -12.575  0.1891E+02  0.1882E+03
    -12.559  0.1907E+02  0.1885E+03
    -12.544  0.1927E+02  0.1888E+03
    -12.529  0.1952E+02  0.1891E+03
    -12.513  0.1980E+02  0.1894E+03
    -12.498  0.2012E+02  0.1897E+03
    -12.482  0.2046E+02  0.1900E+03
    -12.467  0.2081E+02  0.1904E+03
    -12.451  0.2116E+02  0.1907E+03
    -12.436  0.2151E+02  0.1910E+03
    -12.421  0.2185E+02  0.1914E+03
    -12.405  0.2216E+02  0.1917E+03
    -12.390  0.2245E+02  0.1920E+03
    -12.374  0.2270E+02  0.1924E+03
    -12.359  0.2290E+02  0.1927E+03
    -12.344  0.2307E+02  0.1931E+03
    -12.328  0.2318E+02  0.1935E+03
    -12.313  0.2326E+02  0.1938E+03
    -12.297  0.2328E+02  0.1942E+03
    -12.282  0.2327E+02  0.1945E+03
    -12.266  0.2321E+02  0.1949E+03
    -12.251  0.2313E+02  0.1953E+03