  96  96   0   0
  0.2619380E+02  0.1704000E-08  0.1475707E-08  0.1000000E-08  0.5000000E-15
  1.000000000000000E-004
  CAR 
 unknown system                          
      7.10754103    -22.78761727 2000     -1.20994841      1.00000000
    -22.788  0.0000E+00  0.0000E+00
    -22.773  0.0000E+00  0.0000E+00
    -22.758  0.0000E+00  0.0000E+00
    -22.743  0.0000E+00  0.0000E+00
    -22.728  0.0000E+00  0.0000E+00
    -22.713  0.0000E+00  0.0000E+00
    -22.698  0.0000E+00  0.0000E+00
    -22.683  0.0000E+00  0.0000E+00
    -22.668  0.0000E+00  0.0000E+00
    -22.653  0.0000E+00  0.0000E+00
    -22.638  0.0000E+00  0.0000E+00
    -22.623  0.0000E+00  0.0000E+00
    -22.608  0.0000E+00  0.0000E+00
    -22.593  0.0000E+00  0.0000E+00
    -22.578  0.0000E+00  0.0000E+00
    -22.563  0.0000E+00  0.0000E+00
    -22.548  0.0000E+00  0.0000E+00
    -22.533  0.0000E+00  0.0000E+00
    -22.518  0.0000E+00  0.0000E+00
    -22.503  0.0000E+00  0.0000E+00
    -22.489  0.0000E+00  0.0000E+00
    -22.474  0.0000E+00  0.0000E+00
    -22.459  0.0000E+00  0.0000E+00
    -22.444  0.0000E+00  0.0000E+00
    -22.429  0.0000E+00  0.0000E+00
    -22.414  0.0000E+00  0.0000E+00
    -22.399  0.0000E+00  0.0000E+00
    -22.384  0.0000E+00  0.0000E+00
    -22.369  0.0000E+00  0.0000E+00
    -22.354  0.0000E+00  0.0000E+00
    -22.339  0.0000E+00  0.0000E+00
    -22.324  0.0000E+00  0.0000E+00
    -22.309  0.0000E+00  0.0000E+00
    -22.294  0.0000E+00  0.0000E+00
    -22.279  0.0000E+00  0.0000E+00
    -22.264  0.0000E+00  0.0000E+00
    -22.249  0.0000E+00  0.0000E+00
    -22.234  0.0000E+00  0.0000E+00
    -22.219  0.0000E+00  0.0000E+00
    -22.204  0.0000E+00  0.0000E+00
    -22.189  0.0000E+00  0.0000E+00
    -22.174  0.0000E+00  0.0000E+00
    -22.160  0.0000E+00  0.0000E+00
    -22.145  0.0000E+00  0.0000E+00
    -22.130  0.0000E+00  0.0000E+00
    -22.115  0.0000E+00  0.0000E+00
    -22.100  0.0000E+00  0.0000E+00
    -22.085  0.0000E+00  0.0000E+00
    -22.070  0.0000E+00  0.0000E+00
    -22.055  0.0000E+00  0.0000E+00
    -22.040  0.0000E+00  0.0000E+00
    -22.025  0.0000E+00  0.0000E+00
    -22.010  0.0000E+00  0.0000E+00
    -21.995  0.0000E+00  0.0000E+00
    -21.980  0.0000E+00  0.0000E+00
    -21.965  0.8249E-15  0.1234E-16
    -21.950  0.8249E-15  0.2467E-16
    -21.935  0.1650E-14  0.4934E-16
    -21.920  0.6599E-14  0.1480E-15
    -21.905  0.1567E-13  0.3824E-15
    -21.890  0.3299E-13  0.8758E-15
    -21.875  0.8414E-13  0.2134E-14
    -21.860  0.1790E-12  0.4811E-14
    -21.845  0.4083E-12  0.1092E-13
    -21.830  0.9090E-12  0.2451E-13
    -21.816  0.1999E-11  0.5440E-13
    -21.801  0.4352E-11  0.1195E-12
    -21.786  0.9367E-11  0.2596E-12
    -21.771  0.1994E-10  0.5578E-12
    -21.756  0.4202E-10  0.1186E-11
    -21.741  0.8756E-10  0.2496E-11
    -21.726  0.1805E-09  0.5195E-11
    -21.711  0.3680E-09  0.1070E-10
    -21.696  0.7424E-09  0.2180E-10
    -21.681  0.1481E-08  0.4396E-10
    -21.666  0.2924E-08  0.8769E-10
    -21.651  0.5711E-08  0.1731E-09
    -21.636  0.1103E-07  0.3381E-09
    -21.621  0.2108E-07  0.6534E-09
    -21.606  0.3986E-07  0.1249E-08
    -21.591  0.7456E-07  0.2364E-08
    -21.576  0.1380E-06  0.4428E-08
    -21.561  0.2525E-06  0.8204E-08
    -21.546  0.4574E-06  0.1504E-07
    -21.531  0.8195E-06  0.2730E-07
    -21.516  0.1453E-05  0.4902E-07
    -21.501  0.2548E-05  0.8713E-07
    -21.487  0.4421E-05  0.1532E-06
    -21.472  0.7589E-05  0.2667E-06
    -21.457  0.1289E-04  0.4595E-06
    -21.442  0.2166E-04  0.7834E-06
    -21.427  0.3602E-04  0.1322E-05
    -21.412  0.5925E-04  0.2208E-05
    -21.397  0.9644E-04  0.3650E-05
    -21.382  0.1553E-03  0.5973E-05
    -21.367  0.2475E-03  0.9675E-05
    -21.352  0.3903E-03  0.1551E-04
    -21.337  0.6090E-03  0.2462E-04
    -21.322  0.9403E-03  0.3868E-04
    -21.307  0.1437E-02  0.6017E-04
    -21.292  0.2172E-02  0.9265E-04
    -21.277  0.3249E-02  0.1412E-03
    -21.262  0.4810E-02  0.2132E-03
    -21.247  0.7047E-02  0.3186E-03
    -21.232  0.1022E-01  0.4714E-03
    -21.217  0.1466E-01  0.6906E-03
    -21.202  0.2082E-01  0.1002E-02
    -21.187  0.2926E-01  0.1440E-02
    -21.172  0.4071E-01  0.2048E-02
    -21.158  0.5605E-01  0.2887E-02
    -21.143  0.7638E-01  0.4029E-02
    -21.128  0.1030E+00  0.5570E-02
    -21.113  0.1376E+00  0.7627E-02
    -21.098  0.1819E+00  0.1035E-01
    -21.083  0.2380E+00  0.1391E-01
    -21.068  0.3084E+00  0.1852E-01
    -21.053  0.3956E+00  0.2444E-01
    -21.038  0.5026E+00  0.3195E-01
    -21.023  0.6322E+00  0.4141E-01
    -21.008  0.7875E+00  0.5318E-01
    -20.993  0.9716E+00  0.6771E-01
    -20.978  0.1187E+01  0.8547E-01
    -20.963  0.1437E+01  0.1070E+00
    -20.948  0.1724E+01  0.1327E+00
    -20.933  0.2049E+01  0.1634E+00
    -20.918  0.2413E+01  0.1995E+00
    -20.903  0.2816E+01  0.2416E+00
    -20.888  0.3258E+01  0.2903E+00
    -20.873  0.3738E+01  0.3462E+00
    -20.858  0.4252E+01  0.4098E+00
    -20.843  0.4796E+01  0.4815E+00
    -20.829  0.5368E+01  0.5618E+00
    -20.814  0.5961E+01  0.6509E+00
    -20.799  0.6569E+01  0.7492E+00
    -20.784  0.7186E+01  0.8566E+00
    -20.769  0.7805E+01  0.9734E+00
    -20.754  0.8420E+01  0.1099E+01
    -20.739  0.9023E+01  0.1234E+01
    -20.724  0.9609E+01  0.1378E+01
    -20.709  0.1017E+02  0.1530E+01
    -20.694  0.1071E+02  0.1690E+01
    -20.679  0.1121E+02  0.1858E+01
    -20.664  0.1167E+02  0.2032E+01
    -20.649  0.1210E+02  0.2213E+01
    -20.634  0.1248E+02  0.2400E+01
    -20.619  0.1282E+02  0.2592E+01
    -20.604  0.1313E+02  0.2788E+01
    -20.589  0.1339E+02  0.2988E+01
    -20.574  0.1362E+02  0.3192E+01
    -20.559  0.1381E+02  0.3398E+01
    -20.544  0.1397E+02  0.3607E+01
    -20.529  0.1411E+02  0.3818E+01
    -20.514  0.1422E+02  0.4031E+01
    -20.499  0.1431E+02  0.4245E+01
    -20.485  0.1438E+02  0.4460E+01
    -20.470  0.1444E+02  0.4676E+01
    -20.455  0.1449E+02  0.4893E+01
    -20.440  0.1453E+02  0.5110E+01
    -20.425  0.1457E+02  0.5328E+01
    -20.410  0.1460E+02  0.5546E+01
    -20.395  0.1464E+02  0.5765E+01
    -20.380  0.1467E+02  0.5985E+01
    -20.365  0.1471E+02  0.6204E+01
    -20.350  0.1474E+02  0.6425E+01
    -20.335  0.1477E+02  0.6646E+01
    -20.320  0.1481E+02  0.6867E+01
    -20.305  0.1483E+02  0.7089E+01
    -20.290  0.1486E+02  0.7311E+01
    -20.275  0.1488E+02  0.7534E+01
    -20.260  0.1489E+02  0.7757E+01
    -20.245  0.1489E+02  0.7979E+01
    -20.230  0.1489E+02  0.8202E+01
    -20.215  0.1487E+02  0.8424E+01
    -20.200  0.1484E+02  0.8646E+01
    -20.185  0.1481E+02  0.8868E+01
    -20.170  0.1477E+02  0.9089E+01
    -20.156  0.1472E+02  0.9309E+01
    -20.141  0.1466E+02  0.9528E+01
    -20.126  0.1461E+02  0.9746E+01
    -20.111  0.1456E+02  0.9964E+01
    -20.096  0.1451E+02  0.1018E+02
    -20.081  0.1448E+02  0.1040E+02
    -20.066  0.1445E+02  0.1061E+02
    -20.051  0.1444E+02  0.1083E+02
    -20.036  0.1445E+02  0.1105E+02
    -20.021  0.1447E+02  0.1126E+02
    -20.006  0.1451E+02  0.1148E+02
    -19.991  0.1457E+02  0.1170E+02
    -19.976  0.1464E+02  0.1192E+02
    -19.961  0.1473E+02  0.1214E+02
    -19.946  0.1481E+02  0.1236E+02
    -19.931  0.1491E+02  0.1258E+02
    -19.916  0.1500E+02  0.1281E+02
    -19.901  0.1509E+02  0.1303E+02
    -19.886  0.1517E+02  0.1326E+02
    -19.871  0.1523E+02  0.1349E+02
    -19.856  0.1528E+02  0.1371E+02
    -19.841  0.1532E+02  0.1394E+02
    -19.827  0.1534E+02  0.1417E+02
    -19.812  0.1534E+02  0.1440E+02
    -19.797  0.1532E+02  0.1463E+02
    -19.782  0.1529E+02  0.1486E+02
    -19.767  0.1524E+02  0.1509E+02
    -19.752  0.1518E+02  0.1531E+02
    -19.737  0.1510E+02  0.1554E+02
    -19.722  0.1501E+02  0.1577E+02
    -19.707  0.1491E+02  0.1599E+02
    -19.692  0.1481E+02  0.1621E+02
    -19.677  0.1469E+02  0.1643E+02
    -19.662  0.1458E+02  0.1665E+02
    -19.647  0.1446E+02  0.1686E+02
    -19.632  0.1434E+02  0.1708E+02
    -19.617  0.1423E+02  0.1729E+02
    -19.602  0.1413E+02  0.1750E+02
    -19.587  0.1404E+02  0.1771E+02
    -19.572  0.1397E+02  0.1792E+02
    -19.557  0.1392E+02  0.1813E+02
    -19.542  0.1389E+02  0.1834E+02
    -19.527  0.1390E+02  0.1854E+02
    -19.512  0.1393E+02  0.1875E+02
    -19.498  0.1401E+02  0.1896E+02
    -19.483  0.1412E+02  0.1917E+02
    -19.468  0.1427E+02  0.1939E+02
    -19.453  0.1446E+02  0.1960E+02
    -19.438  0.1468E+02  0.1982E+02
    -19.423  0.1493E+02  0.2005E+02
    -19.408  0.1520E+02  0.2027E+02
    -19.393  0.1548E+02  0.2050E+02
    -19.378  0.1575E+02  0.2074E+02
    -19.363  0.1602E+02  0.2098E+02
    -19.348  0.1627E+02  0.2122E+02
    -19.333  0.1648E+02  0.2147E+02
    -19.318  0.1665E+02  0.2172E+02
    -19.303  0.1677E+02  0.2197E+02
    -19.288  0.1682E+02  0.2222E+02
    -19.273  0.1681E+02  0.2247E+02
    -19.258  0.1673E+02  0.2272E+02
    -19.243  0.1658E+02  0.2297E+02
    -19.228  0.1636E+02  0.2322E+02
    -19.213  0.1609E+02  0.2346E+02
    -19.198  0.1576E+02  0.2369E+02
    -19.183  0.1539E+02  0.2392E+02
    -19.168  0.1500E+02  0.2415E+02
    -19.154  0.1459E+02  0.2436E+02
    -19.139  0.1418E+02  0.2458E+02
    -19.124  0.1378E+02  0.2478E+02
    -19.109  0.1341E+02  0.2498E+02
    -19.094  0.1307E+02  0.2518E+02
    -19.079  0.1279E+02  0.2537E+02
    -19.064  0.1257E+02  0.2556E+02
    -19.049  0.1243E+02  0.2574E+02
    -19.034  0.1235E+02  0.2593E+02
    -19.019  0.1236E+02  0.2611E+02
    -19.004  0.1245E+02  0.2630E+02
    -18.989  0.1263E+02  0.2649E+02
    -18.974  0.1287E+02  0.2668E+02
    -18.959  0.1319E+02  0.2688E+02
    -18.944  0.1357E+02  0.2708E+02
    -18.929  0.1400E+02  0.2729E+02
    -18.914  0.1447E+02  0.2751E+02
    -18.899  0.1495E+02  0.2773E+02
    -18.884  0.1544E+02  0.2796E+02
    -18.869  0.1592E+02  0.2820E+02
    -18.854  0.1637E+02  0.2844E+02
    -18.839  0.1678E+02  0.2870E+02
    -18.825  0.1713E+02  0.2895E+02
    -18.810  0.1741E+02  0.2921E+02
    -18.795  0.1762E+02  0.2948E+02
    -18.780  0.1775E+02  0.2974E+02
    -18.765  0.1779E+02  0.3001E+02
    -18.750  0.1776E+02  0.3027E+02
    -18.735  0.1765E+02  0.3054E+02
    -18.720  0.1747E+02  0.3080E+02
    -18.705  0.1723E+02  0.3106E+02
    -18.690  0.1695E+02  0.3131E+02
    -18.675  0.1663E+02  0.3156E+02
    -18.660  0.1629E+02  0.3180E+02
    -18.645  0.1595E+02  0.3204E+02
    -18.630  0.1561E+02  0.3227E+02
    -18.615  0.1528E+02  0.3250E+02
    -18.600  0.1497E+02  0.3273E+02
    -18.585  0.1469E+02  0.3295E+02
    -18.570  0.1444E+02  0.3316E+02
    -18.555  0.1423E+02  0.3337E+02
    -18.540  0.1404E+02  0.3358E+02
    -18.525  0.1389E+02  0.3379E+02
    -18.510  0.1376E+02  0.3400E+02
    -18.496  0.1365E+02  0.3420E+02
    -18.481  0.1356E+02  0.3440E+02
    -18.466  0.1348E+02  0.3461E+02
    -18.451  0.1342E+02  0.3481E+02
    -18.436  0.1337E+02  0.3501E+02
    -18.421  0.1332E+02  0.3521E+02
    -18.406  0.1329E+02  0.3540E+02
    -18.391  0.1327E+02  0.3560E+02
    -18.376  0.1326E+02  0.3580E+02
    -18.361  0.1327E+02  0.3600E+02
    -18.346  0.1331E+02  0.3620E+02
    -18.331  0.1337E+02  0.3640E+02
    -18.316  0.1346E+02  0.3660E+02
    -18.301  0.1359E+02  0.3680E+02
    -18.286  0.1376E+02  0.3701E+02
    -18.271  0.1396E+02  0.3722E+02
    -18.256  0.1419E+02  0.3743E+02
    -18.241  0.1446E+02  0.3765E+02
    -18.226  0.1476E+02  0.3787E+02
    -18.211  0.1508E+02  0.3809E+02
    -18.196  0.1542E+02  0.3832E+02
    -18.181  0.1577E+02  0.3856E+02
    -18.167  0.1612E+02  0.3880E+02
    -18.152  0.1647E+02  0.3905E+02
    -18.137  0.1681E+02  0.3930E+02
    -18.122  0.1713E+02  0.3955E+02
    -18.107  0.1742E+02  0.3981E+02
    -18.092  0.1768E+02  0.4008E+02
    -18.077  0.1790E+02  0.4035E+02
    -18.062  0.1807E+02  0.4062E+02
    -18.047  0.1820E+02  0.4089E+02
    -18.032  0.1828E+02  0.4116E+02
    -18.017  0.1830E+02  0.4144E+02
    -18.002  0.1826E+02  0.4171E+02
    -17.987  0.1817E+02  0.4198E+02
    -17.972  0.1803E+02  0.4225E+02
    -17.957  0.1783E+02  0.4252E+02
    -17.942  0.1758E+02  0.4278E+02
    -17.927  0.1728E+02  0.4304E+02
    -17.912  0.1694E+02  0.4329E+02
    -17.897  0.1656E+02  0.4354E+02
    -17.882  0.1615E+02  0.4378E+02
    -17.867  0.1571E+02  0.4402E+02
    -17.852  0.1525E+02  0.4424E+02
    -17.837  0.1479E+02  0.4446E+02
    -17.823  0.1431E+02  0.4468E+02
    -17.808  0.1385E+02  0.4489E+02
    -17.793  0.1340E+02  0.4509E+02
    -17.778  0.1297E+02  0.4528E+02
    -17.763  0.1257E+02  0.4547E+02
    -17.748  0.1221E+02  0.4565E+02
    -17.733  0.1190E+02  0.4583E+02
    -17.718  0.1166E+02  0.4600E+02
    -17.703  0.1147E+02  0.4617E+02
    -17.688  0.1137E+02  0.4634E+02
    -17.673  0.1134E+02  0.4651E+02
    -17.658  0.1139E+02  0.4668E+02
    -17.643  0.1153E+02  0.4686E+02
    -17.628  0.1176E+02  0.4703E+02
    -17.613  0.1207E+02  0.4721E+02
    -17.598  0.1246E+02  0.4740E+02
    -17.583  0.1292E+02  0.4759E+02
    -17.568  0.1344E+02  0.4779E+02
    -17.553  0.1402E+02  0.4800E+02
    -17.538  0.1463E+02  0.4822E+02
    -17.523  0.1526E+02  0.4845E+02
    -17.508  0.1589E+02  0.4869E+02
    -17.494  0.1652E+02  0.4894E+02
    -17.479  0.1712E+02  0.4919E+02
    -17.464  0.1767E+02  0.4946E+02
    -17.449  0.1817E+02  0.4973E+02
    -17.434  0.1860E+02  0.5001E+02
    -17.419  0.1895E+02  0.5029E+02
    -17.404  0.1922E+02  0.5058E+02
    -17.389  0.1939E+02  0.5087E+02
    -17.374  0.1948E+02  0.5116E+02
    -17.359  0.1948E+02  0.5145E+02
    -17.344  0.1939E+02  0.5174E+02
    -17.329  0.1923E+02  0.5203E+02
    -17.314  0.1899E+02  0.5231E+02
    -17.299  0.1869E+02  0.5259E+02
    -17.284  0.1834E+02  0.5286E+02
    -17.269  0.1794E+02  0.5313E+02
    -17.254  0.1752E+02  0.5339E+02
    -17.239  0.1708E+02  0.5365E+02
    -17.224  0.1664E+02  0.5390E+02
    -17.209  0.1620E+02  0.5414E+02
    -17.194  0.1577E+02  0.5438E+02
    -17.179  0.1537E+02  0.5461E+02
    -17.165  0.1499E+02  0.5483E+02
    -17.150  0.1465E+02  0.5505E+02
    -17.135  0.1434E+02  0.5526E+02
    -17.120  0.1408E+02  0.5547E+02
    -17.105  0.1386E+02  0.5568E+02
    -17.090  0.1368E+02  0.5589E+02
    -17.075  0.1355E+02  0.5609E+02
    -17.060  0.1347E+02  0.5629E+02
    -17.045  0.1343E+02  0.5649E+02
    -17.030  0.1343E+02  0.5669E+02
    -17.015  0.1348E+02  0.5689E+02
    -17.000  0.1356E+02  0.5710E+02
    -16.985  0.1368E+02  0.5730E+02
    -16.970  0.1383E+02  0.5751E+02
    -16.955  0.1402E+02  0.5772E+02
    -16.940  0.1423E+02  0.5793E+02
    -16.925  0.1446E+02  0.5815E+02
    -16.910  0.1472E+02  0.5837E+02
    -16.895  0.1498E+02  0.5859E+02
    -16.880  0.1526E+02  0.5882E+02
    -16.865  0.1553E+02  0.5905E+02
    -16.850  0.1579E+02  0.5929E+02
    -16.836  0.1604E+02  0.5953E+02
    -16.821  0.1626E+02  0.5977E+02
    -16.806  0.1645E+02  0.6002E+02
    -16.791  0.1660E+02  0.6026E+02
    -16.776  0.1671E+02  0.6051E+02
    -16.761  0.1676E+02  0.6077E+02
    -16.746  0.1677E+02  0.6102E+02
    -16.731  0.1673E+02  0.6127E+02
    -16.716  0.1663E+02  0.6151E+02
    -16.701  0.1650E+02  0.6176E+02
    -16.686  0.1632E+02  0.6201E+02
    -16.671  0.1612E+02  0.6225E+02
    -16.656  0.1590E+02  0.6248E+02
    -16.641  0.1568E+02  0.6272E+02
    -16.626  0.1547E+02  0.6295E+02
    -16.611  0.1528E+02  0.6318E+02
    -16.596  0.1512E+02  0.6340E+02
    -16.581  0.1501E+02  0.6363E+02
    -16.566  0.1495E+02  0.6385E+02
    -16.551  0.1496E+02  0.6408E+02
    -16.536  0.1503E+02  0.6430E+02
    -16.521  0.1517E+02  0.6453E+02
    -16.506  0.1537E+02  0.6476E+02
    -16.492  0.1563E+02  0.6499E+02
    -16.477  0.1594E+02  0.6523E+02
    -16.462  0.1629E+02  0.6547E+02
    -16.447  0.1666E+02  0.6572E+02
    -16.432  0.1705E+02  0.6598E+02
    -16.417  0.1743E+02  0.6624E+02
    -16.402  0.1779E+02  0.6650E+02
    -16.387  0.1813E+02  0.6678E+02
    -16.372  0.1841E+02  0.6705E+02
    -16.357  0.1864E+02  0.6733E+02
    -16.342  0.1880E+02  0.6761E+02
    -16.327  0.1890E+02  0.6789E+02
    -16.312  0.1892E+02  0.6818E+02
    -16.297  0.1887E+02  0.6846E+02
    -16.282  0.1875E+02  0.6874E+02
    -16.267  0.1858E+02  0.6902E+02
    -16.252  0.1835E+02  0.6929E+02
    -16.237  0.1809E+02  0.6956E+02
    -16.222  0.1780E+02  0.6983E+02
    -16.207  0.1749E+02  0.7009E+02
    -16.192  0.1719E+02  0.7035E+02
    -16.177  0.1689E+02  0.7060E+02
    -16.163  0.1662E+02  0.7085E+02
    -16.148  0.1638E+02  0.7109E+02
    -16.133  0.1618E+02  0.7134E+02
    -16.118  0.1602E+02  0.7157E+02
    -16.103  0.1590E+02  0.7181E+02
    -16.088  0.1582E+02  0.7205E+02
    -16.073  0.1578E+02  0.7229E+02
    -16.058  0.1577E+02  0.7252E+02
    -16.043  0.1578E+02  0.7276E+02
    -16.028  0.1581E+02  0.7299E+02
    -16.013  0.1584E+02  0.7323E+02
    -15.998  0.1588E+02  0.7347E+02
    -15.983  0.1591E+02  0.7371E+02
    -15.968  0.1594E+02  0.7394E+02
    -15.953  0.1595E+02  0.7418E+02
    -15.938  0.1596E+02  0.7442E+02
    -15.923  0.1596E+02  0.7466E+02
    -15.908  0.1596E+02  0.7490E+02
    -15.893  0.1597E+02  0.7514E+02
    -15.878  0.1599E+02  0.7538E+02
    -15.863  0.1603E+02  0.7562E+02
    -15.848  0.1610E+02  0.7586E+02
    -15.834  0.1621E+02  0.7610E+02
    -15.819  0.1636E+02  0.7634E+02
    -15.804  0.1656E+02  0.7659E+02
    -15.789  0.1682E+02  0.7684E+02
    -15.774  0.1713E+02  0.7710E+02
    -15.759  0.1748E+02  0.7736E+02
    -15.744  0.1789E+02  0.7763E+02
    -15.729  0.1833E+02  0.7790E+02
    -15.714  0.1880E+02  0.7818E+02
    -15.699  0.1929E+02  0.7847E+02
    -15.684  0.1979E+02  0.7877E+02
    -15.669  0.2028E+02  0.7907E+02
    -15.654  0.2075E+02  0.7938E+02
    -15.639  0.2118E+02  0.7970E+02
    -15.624  0.2158E+02  0.8002E+02
    -15.609  0.2192E+02  0.8035E+02
    -15.594  0.2219E+02  0.8068E+02
    -15.579  0.2239E+02  0.8102E+02
    -15.564  0.2252E+02  0.8135E+02
    -15.549  0.2257E+02  0.8169E+02
    -15.534  0.2255E+02  0.8203E+02
    -15.519  0.2245E+02  0.8236E+02
    -15.505  0.2229E+02  0.8270E+02
    -15.490  0.2206E+02  0.8303E+02
    -15.475  0.2178E+02  0.8335E+02
    -15.460  0.2145E+02  0.8367E+02
    -15.445  0.2108E+02  0.8399E+02
    -15.430  0.2068E+02  0.8430E+02
    -15.415  0.2026E+02  0.8460E+02
    -15.400  0.1983E+02  0.8490E+02
    -15.385  0.1938E+02  0.8519E+02
    -15.370  0.1892E+02  0.8547E+02
    -15.355  0.1846E+02  0.8575E+02
    -15.340  0.1800E+02  0.8601E+02
    -15.325  0.1754E+02  0.8628E+02
    -15.310  0.1707E+02  0.8653E+02
    -15.295  0.1660E+02  0.8678E+02
    -15.280  0.1613E+02  0.8702E+02
    -15.265  0.1565E+02  0.8726E+02
    -15.250  0.1517E+02  0.8748E+02
    -15.235  0.1468E+02  0.8770E+02
    -15.220  0.1419E+02  0.8791E+02
    -15.205  0.1369E+02  0.8812E+02
    -15.190  0.1319E+02  0.8832E+02
    -15.175  0.1268E+02  0.8851E+02
    -15.161  0.1218E+02  0.8869E+02
    -15.146  0.1169E+02  0.8886E+02
    -15.131  0.1120E+02  0.8903E+02
    -15.116  0.1072E+02  0.8919E+02
    -15.101  0.1026E+02  0.8934E+02
    -15.086  0.9822E+01  0.8949E+02
    -15.071  0.9406E+01  0.8963E+02
    -15.056  0.9019E+01  0.8977E+02
    -15.041  0.8665E+01  0.8990E+02
    -15.026  0.8348E+01  0.9002E+02
    -15.011  0.8073E+01  0.9014E+02
    -14.996  0.7842E+01  0.9026E+02
    -14.981  0.7658E+01  0.9037E+02
    -14.966  0.7521E+01  0.9049E+02
    -14.951  0.7434E+01  0.9060E+02
    -14.936  0.7394E+01  0.9071E+02
    -14.921  0.7400E+01  0.9082E+02
    -14.906  0.7449E+01  0.9093E+02
    -14.891  0.7536E+01  0.9104E+02
    -14.876  0.7656E+01  0.9116E+02
    -14.861  0.7803E+01  0.9127E+02
    -14.846  0.7971E+01  0.9139E+02
    -14.832  0.8151E+01  0.9152E+02
    -14.817  0.8339E+01  0.9164E+02
    -14.802  0.8527E+01  0.9177E+02
    -14.787  0.8709E+01  0.9190E+02
    -14.772  0.8883E+01  0.9203E+02
    -14.757  0.9043E+01  0.9217E+02
    -14.742  0.9189E+01  0.9230E+02
    -14.727  0.9320E+01  0.9244E+02
    -14.712  0.9436E+01  0.9258E+02
    -14.697  0.9539E+01  0.9273E+02
    -14.682  0.9632E+01  0.9287E+02
    -14.667  0.9719E+01  0.9302E+02
    -14.652  0.9804E+01  0.9316E+02
    -14.637  0.9893E+01  0.9331E+02
    -14.622  0.9991E+01  0.9346E+02
    -14.607  0.1010E+02  0.9361E+02
    -14.592  0.1023E+02  0.9376E+02
    -14.577  0.1038E+02  0.9392E+02
    -14.562  0.1056E+02  0.9408E+02
    -14.547  0.1076E+02  0.9424E+02
    -14.532  0.1100E+02  0.9440E+02
    -14.517  0.1126E+02  0.9457E+02
    -14.503  0.1154E+02  0.9474E+02
    -14.488  0.1185E+02  0.9492E+02
    -14.473  0.1217E+02  0.9510E+02
    -14.458  0.1250E+02  0.9529E+02
    -14.443  0.1284E+02  0.9548E+02
    -14.428  0.1317E+02  0.9568E+02
    -14.413  0.1348E+02  0.9588E+02
    -14.398  0.1376E+02  0.9609E+02
    -14.383  0.1401E+02  0.9630E+02
    -14.368  0.1421E+02  0.9651E+02
    -14.353  0.1436E+02  0.9672E+02
    -14.338  0.1445E+02  0.9694E+02
    -14.323  0.1447E+02  0.9715E+02
    -14.308  0.1442E+02  0.9737E+02
    -14.293  0.1431E+02  0.9758E+02
    -14.278  0.1413E+02  0.9780E+02
    -14.263  0.1389E+02  0.9800E+02
    -14.248  0.1361E+02  0.9821E+02
    -14.233  0.1329E+02  0.9841E+02
    -14.218  0.1295E+02  0.9860E+02
    -14.203  0.1261E+02  0.9879E+02
    -14.188  0.1228E+02  0.9897E+02
    -14.174  0.1198E+02  0.9915E+02
    -14.159  0.1173E+02  0.9933E+02
    -14.144  0.1155E+02  0.9950E+02
    -14.129  0.1145E+02  0.9967E+02
    -14.114  0.1145E+02  0.9984E+02
    -14.099  0.1155E+02  0.1000E+03
    -14.084  0.1177E+02  0.1002E+03
    -14.069  0.1210E+02  0.1004E+03
    -14.054  0.1256E+02  0.1006E+03
    -14.039  0.1312E+02  0.1008E+03
    -14.024  0.1378E+02  0.1010E+03
    -14.009  0.1454E+02  0.1012E+03
    -13.994  0.1536E+02  0.1014E+03
    -13.979  0.1623E+02  0.1017E+03
    -13.964  0.1714E+02  0.1019E+03
    -13.949  0.1804E+02  0.1022E+03
    -13.934  0.1893E+02  0.1025E+03
    -13.919  0.1977E+02  0.1028E+03
    -13.904  0.2054E+02  0.1031E+03
    -13.889  0.2122E+02  0.1034E+03
    -13.874  0.2180E+02  0.1037E+03
    -13.859  0.2225E+02  0.1040E+03
    -13.844  0.2258E+02  0.1044E+03
    -13.830  0.2276E+02  0.1047E+03
    -13.815  0.2282E+02  0.1051E+03
    -13.800  0.2275E+02  0.1054E+03
    -13.785  0.2255E+02  0.1057E+03
    -13.770  0.2226E+02  0.1061E+03
    -13.755  0.2188E+02  0.1064E+03
    -13.740  0.2144E+02  0.1067E+03
    -13.725  0.2096E+02  0.1070E+03
    -13.710  0.2046E+02  0.1073E+03
    -13.695  0.1996E+02  0.1076E+03
    -13.680  0.1948E+02  0.1079E+03
    -13.665  0.1905E+02  0.1082E+03
    -13.650  0.1867E+02  0.1085E+03
    -13.635  0.1836E+02  0.1088E+03
    -13.620  0.1812E+02  0.1090E+03
    -13.605  0.1795E+02  0.1093E+03
    -13.590  0.1787E+02  0.1096E+03
    -13.575  0.1785E+02  0.1098E+03
    -13.560  0.1790E+02  0.1101E+03
    -13.545  0.1801E+02  0.1104E+03
    -13.530  0.1816E+02  0.1106E+03
    -13.515  0.1834E+02  0.1109E+03
    -13.501  0.1855E+02  0.1112E+03
    -13.486  0.1875E+02  0.1115E+03
    -13.471  0.1896E+02  0.1118E+03
    -13.456  0.1915E+02  0.1120E+03
    -13.441  0.1931E+02  0.1123E+03
    -13.426  0.1944E+02  0.1126E+03
    -13.411  0.1953E+02  0.1129E+03
    -13.396  0.1958E+02  0.1132E+03
    -13.381  0.1958E+02  0.1135E+03
    -13.366  0.1954E+02  0.1138E+03
    -13.351  0.1945E+02  0.1141E+03
    -13.336  0.1932E+02  0.1144E+03
    -13.321  0.1915E+02  0.1147E+03
    -13.306  0.1894E+02  0.1149E+03
    -13.291  0.1869E+02  0.1152E+03
    -13.276  0.1842E+02  0.1155E+03
    -13.261  0.1812E+02  0.1158E+03
    -13.246  0.1781E+02  0.1160E+03
    -13.231  0.1748E+02  0.1163E+03
    -13.216  0.1716E+02  0.1166E+03
    -13.201  0.1685E+02  0.1168E+03
    -13.186  0.1655E+02  0.1171E+03
    -13.172  0.1627E+02  0.1173E+03
    -13.157  0.1604E+02  0.1175E+03
    -13.142  0.1584E+02  0.1178E+03
    -13.127  0.1570E+02  0.1180E+03
    -13.112  0.1561E+02  0.1182E+03
    -13.097  0.1558E+02  0.1185E+03
    -13.082  0.1562E+02  0.1187E+03
    -13.067  0.1571E+02  0.1189E+03
    -13.052  0.1586E+02  0.1192E+03
    -13.037  0.1605E+02  0.1194E+03
    -13.022  0.1629E+02  0.1197E+03
    -13.007  0.1655E+02  0.1199E+03
    -12.992  0.1682E+02  0.1202E+03
    -12.977  0.1710E+02  0.1204E+03
    -12.962  0.1735E+02  0.1207E+03
    -12.947  0.1758E+02  0.1209E+03
    -12.932  0.1777E+02  0.1212E+03
    -12.917  0.1791E+02  0.1215E+03
    -12.902  0.1800E+02  0.1217E+03
    -12.887  0.1802E+02  0.1220E+03
    -12.872  0.1799E+02  0.1223E+03
    -12.857  0.1791E+02  0.1226E+03
    -12.843  0.1778E+02  0.1228E+03
    -12.828  0.1761E+02  0.1231E+03
    -12.813  0.1742E+02  0.1233E+03
    -12.798  0.1721E+02  0.1236E+03
    -12.783  0.1701E+02  0.1239E+03
    -12.768  0.1681E+02  0.1241E+03
    -12.753  0.1663E+02  0.1244E+03
    -12.738  0.1648E+02  0.1246E+03
    -12.723  0.1636E+02  0.1248E+03
    -12.708  0.1628E+02  0.1251E+03
    -12.693  0.1623E+02  0.1253E+03
    -12.678  0.1621E+02  0.1256E+03
    -12.663  0.1623E+02  0.1258E+03
    -12.648  0.1626E+02  0.1261E+03
    -12.633  0.1631E+02  0.1263E+03
    -12.618  0.1637E+02  0.1266E+03
    -12.603  0.1642E+02  0.1268E+03
    -12.588  0.1645E+02  0.1270E+03
    -12.573  0.1646E+02  0.1273E+03
    -12.558  0.1645E+02  0.1275E+03
    -12.543  0.1639E+02  0.1278E+03
    -12.528  0.1630E+02  0.1280E+03
    -12.513  0.1616E+02  0.1283E+03
    -12.499  0.1597E+02  0.1285E+03
    -12.484  0.1573E+02  0.1287E+03
    -12.469  0.1545E+02  0.1290E+03
    -12.454  0.1512E+02  0.1292E+03
    -12.439  0.1476E+02  0.1294E+03
    -12.424  0.1435E+02  0.1296E+03
    -12.409  0.1392E+02  0.1298E+03
    -12.394  0.1346E+02  0.1300E+03
    -12.379  0.1298E+02  0.1302E+03
    -12.364  0.1249E+02  0.1304E+03
    -12.349  0.1200E+02  0.1306E+03
    -12.334  0.1152E+02  0.1308E+03
    -12.319  0.1104E+02  0.1309E+03
    -12.304  0.1060E+02  0.1311E+03
    -12.289  0.1018E+02  0.1312E+03
    -12.274  0.9804E+01  0.1314E+03
    -12.259  0.9477E+01  0.1315E+03
    -12.244  0.9206E+01  0.1317E+03
    -12.229  0.8999E+01  0.1318E+03
    -12.214  0.8861E+01  0.1319E+03
    -12.199  0.8798E+01  0.1321E+03
    -12.184  0.8812E+01  0.1322E+03
    -12.170  0.8906E+01  0.1323E+03
    -12.155  0.9080E+01  0.1325E+03
    -12.140  0.9331E+01  0.1326E+03
    -12.125  0.9658E+01  0.1328E+03
    -12.110  0.1006E+02  0.1329E+03
    -12.095  0.1052E+02  0.1331E+03
    -12.080  0.1103E+02  0.1332E+03
    -12.065  0.1160E+02  0.1334E+03
    -12.050  0.1220E+02  0.1336E+03
    -12.035  0.1283E+02  0.1338E+03
    -12.020  0.1348E+02  0.1340E+03
    -12.005  0.1413E+02  0.1342E+03
    -11.990  0.1479E+02  0.1344E+03
    -11.975  0.1543E+02  0.1346E+03
    -11.960  0.1604E+02  0.1349E+03
    -11.945  0.1663E+02  0.1351E+03
    -11.930  0.1719E+02  0.1354E+03
    -11.915  0.1770E+02  0.1357E+03
    -11.900  0.1816E+02  0.1359E+03
    -11.885  0.1857E+02  0.1362E+03
    -11.870  0.1893E+02  0.1365E+03
    -11.855  0.1923E+02  0.1368E+03
    -11.841  0.1948E+02  0.1371E+03
    -11.826  0.1968E+02  0.1374E+03
    -11.811  0.1982E+02  0.1377E+03
    -11.796  0.1990E+02  0.1380E+03
    -11.781  0.1994E+02  0.1383E+03
    -11.766  0.1992E+02  0.1386E+03
    -11.751  0.1986E+02  0.1388E+03
    -11.736  0.1976E+02  0.1391E+03
    -11.721  0.1961E+02  0.1394E+03
    -11.706  0.1943E+02  0.1397E+03
    -11.691  0.1921E+02  0.1400E+03
    -11.676  0.1896E+02  0.1403E+03
    -11.661  0.1869E+02  0.1406E+03
    -11.646  0.1839E+02  0.1409E+03
    -11.631  0.1807E+02  0.1411E+03
    -11.616  0.1775E+02  0.1414E+03
    -11.601  0.1741E+02  0.1416E+03
    -11.586  0.1708E+02  0.1419E+03
    -11.571  0.1675E+02  0.1422E+03
    -11.556  0.1644E+02  0.1424E+03
    -11.541  0.1614E+02  0.1426E+03
    -11.526  0.1587E+02  0.1429E+03
    -11.512  0.1563E+02  0.1431E+03
    -11.497  0.1543E+02  0.1433E+03
    -11.482  0.1526E+02  0.1436E+03
    -11.467  0.1514E+02  0.1438E+03
    -11.452  0.1505E+02  0.1440E+03
    -11.437  0.1499E+02  0.1442E+03
    -11.422  0.1497E+02  0.1445E+03
    -11.407  0.1497E+02  0.1447E+03
    -11.392  0.1500E+02  0.1449E+03
    -11.377  0.1503E+02  0.1451E+03
    -11.362  0.1508E+02  0.1454E+03
    -11.347  0.1512E+02  0.1456E+03
    -11.332  0.1514E+02  0.1458E+03
    -11.317  0.1515E+02  0.1460E+03
    -11.302  0.1514E+02  0.1463E+03
    -11.287  0.1510E+02  0.1465E+03
    -11.272  0.1503E+02  0.1467E+03
    -11.257  0.1492E+02  0.1469E+03
    -11.242  0.1478E+02  0.1472E+03
    -11.227  0.1462E+02  0.1474E+03
    -11.212  0.1444E+02  0.1476E+03
    -11.197  0.1426E+02  0.1478E+03
    -11.182  0.1407E+02  0.1480E+03
    -11.168  0.1390E+02  0.1482E+03
    -11.153  0.1376E+02  0.1484E+03
    -11.138  0.1367E+02  0.1486E+03
    -11.123  0.1364E+02  0.1489E+03
    -11.108  0.1369E+02  0.1491E+03
    -11.093  0.1382E+02  0.1493E+03
    -11.078  0.1406E+02  0.1495E+03
    -11.063  0.1440E+02  0.1497E+03
    -11.048  0.1484E+02  0.1499E+03
    -11.033  0.1539E+02  0.1501E+03
    -11.018  0.1604E+02  0.1504E+03
    -11.003  0.1678E+02  0.1506E+03
    -10.988  0.1758E+02  0.1509E+03
    -10.973  0.1844E+02  0.1512E+03
    -10.958  0.1932E+02  0.1515E+03
    -10.943  0.2021E+02  0.1518E+03
    -10.928  0.2107E+02  0.1521E+03
    -10.913  0.2188E+02  0.1524E+03
    -10.898  0.2261E+02  0.1527E+03
    -10.883  0.2324E+02  0.1531E+03
    -10.868  0.2376E+02  0.1534E+03
    -10.853  0.2414E+02  0.1538E+03
    -10.839  0.2438E+02  0.1542E+03
    -10.824  0.2446E+02  0.1545E+03
    -10.809  0.2439E+02  0.1549E+03
    -10.794  0.2418E+02  0.1553E+03
    -10.779  0.2382E+02  0.1556E+03
    -10.764  0.2334E+02  0.1560E+03
    -10.749  0.2275E+02  0.1563E+03
    -10.734  0.2207E+02  0.1566E+03
    -10.719  0.2133E+02  0.1570E+03
    -10.704  0.2055E+02  0.1573E+03
    -10.689  0.1974E+02  0.1576E+03
    -10.674  0.1894E+02  0.1578E+03
    -10.659  0.1816E+02  0.1581E+03
    -10.644  0.1743E+02  0.1584E+03
    -10.629  0.1675E+02  0.1586E+03
    -10.614  0.1616E+02  0.1589E+03
    -10.599  0.1564E+02  0.1591E+03
    -10.584  0.1523E+02  0.1593E+03
    -10.569  0.1491E+02  0.1596E+03
    -10.554  0.1470E+02  0.1598E+03
    -10.539  0.1459E+02  0.1600E+03
    -10.524  0.1458E+02  0.1602E+03
    -10.510  0.1467E+02  0.1604E+03
    -10.495  0.1485E+02  0.1606E+03
    -10.480  0.1512E+02  0.1609E+03
    -10.465  0.1546E+02  0.1611E+03
    -10.450  0.1587E+02  0.1613E+03