 155 155   0   0
  0.5328751E+02  0.2476113E-08  0.1667849E-08  0.2000000E-08  0.5000000E-15
  1.000000000000000E-004
  CAR 
 unknown system                          
      3.02465794    -24.49183780 2000     -3.76161540      1.00000000
    -24.492  0.0000E+00  0.0000E+00
    -24.478  0.0000E+00  0.0000E+00
    -24.464  0.0000E+00  0.0000E+00
    -24.451  0.0000E+00  0.0000E+00
    -24.437  0.0000E+00  0.0000E+00
    -24.423  0.0000E+00  0.0000E+00
    -24.409  0.0000E+00  0.0000E+00
    -24.395  0.0000E+00  0.0000E+00
    -24.382  0.0000E+00  0.0000E+00
    -24.368  0.0000E+00  0.0000E+00
    -24.354  0.0000E+00  0.0000E+00
    -24.340  0.0000E+00  0.0000E+00
    -24.327  0.0000E+00  0.0000E+00
    -24.313  0.0000E+00  0.0000E+00
    -24.299  0.0000E+00  0.0000E+00
    -24.285  0.0000E+00  0.0000E+00
    -24.272  0.0000E+00  0.0000E+00
    -24.258  0.0000E+00  0.0000E+00
    -24.244  0.0000E+00  0.0000E+00
    -24.230  0.0000E+00  0.0000E+00
    -24.217  0.0000E+00  0.0000E+00
    -24.203  0.0000E+00  0.0000E+00
    -24.189  0.0000E+00  0.0000E+00
    -24.175  0.0000E+00  0.0000E+00
    -24.161  0.0000E+00  0.0000E+00
    -24.148  0.0000E+00  0.0000E+00
    -24.134  0.0000E+00  0.0000E+00
    -24.120  0.0000E+00  0.0000E+00
    -24.106  0.0000E+00  0.0000E+00
    -24.093  0.0000E+00  0.0000E+00
    -24.079  0.0000E+00  0.0000E+00
    -24.065  0.0000E+00  0.0000E+00
    -24.051  0.0000E+00  0.0000E+00
    -24.038  0.0000E+00  0.0000E+00
    -24.024  0.0000E+00  0.0000E+00
    -24.010  0.0000E+00  0.0000E+00
    -23.996  0.0000E+00  0.0000E+00
    -23.983  0.0000E+00  0.0000E+00
    -23.969  0.0000E+00  0.0000E+00
    -23.955  0.0000E+00  0.0000E+00
    -23.941  0.0000E+00  0.0000E+00
    -23.927  0.0000E+00  0.0000E+00
    -23.914  0.0000E+00  0.0000E+00
    -23.900  0.0000E+00  0.0000E+00
    -23.886  0.0000E+00  0.0000E+00
    -23.872  0.0000E+00  0.0000E+00
    -23.859  0.0000E+00  0.0000E+00
    -23.845  0.0000E+00  0.0000E+00
    -23.831  0.0000E+00  0.0000E+00
    -23.817  0.0000E+00  0.0000E+00
    -23.804  0.0000E+00  0.0000E+00
    -23.790  0.0000E+00  0.0000E+00
    -23.776  0.0000E+00  0.0000E+00
    -23.762  0.0000E+00  0.0000E+00
    -23.749  0.0000E+00  0.0000E+00
    -23.735  0.0000E+00  0.0000E+00
    -23.721  0.0000E+00  0.0000E+00
    -23.707  0.0000E+00  0.0000E+00
    -23.693  0.0000E+00  0.0000E+00
    -23.680  0.0000E+00  0.0000E+00
    -23.666  0.8065E-14  0.1110E-15
    -23.652  0.8065E-14  0.2220E-15
    -23.638  0.1882E-13  0.4811E-15
    -23.625  0.4033E-13  0.1036E-14
    -23.611  0.8693E-13  0.2233E-14
    -23.597  0.1900E-12  0.4848E-14
    -23.583  0.4078E-12  0.1046E-13
    -23.570  0.8648E-12  0.2236E-13
    -23.556  0.1816E-11  0.4736E-13
    -23.542  0.3784E-11  0.9945E-13
    -23.528  0.7801E-11  0.2068E-12
    -23.515  0.1593E-10  0.4262E-12
    -23.501  0.3225E-10  0.8700E-12
    -23.487  0.6463E-10  0.1760E-11
    -23.473  0.1283E-09  0.3526E-11
    -23.459  0.2524E-09  0.7000E-11
    -23.446  0.4917E-09  0.1377E-10
    -23.432  0.9490E-09  0.2683E-10
    -23.418  0.1814E-08  0.5180E-10
    -23.404  0.3436E-08  0.9910E-10
    -23.391  0.6445E-08  0.1878E-09
    -23.377  0.1198E-07  0.3527E-09
    -23.363  0.2204E-07  0.6561E-09
    -23.349  0.4020E-07  0.1209E-08
    -23.336  0.7260E-07  0.2209E-08
    -23.322  0.1299E-06  0.3997E-08
    -23.308  0.2302E-06  0.7166E-08
    -23.294  0.4042E-06  0.1273E-07
    -23.281  0.7030E-06  0.2241E-07
    -23.267  0.1211E-05  0.3908E-07
    -23.253  0.2067E-05  0.6753E-07
    -23.239  0.3494E-05  0.1156E-06
    -23.225  0.5851E-05  0.1962E-06
    -23.212  0.9706E-05  0.3298E-06
    -23.198  0.1595E-04  0.5493E-06
    -23.184  0.2596E-04  0.9067E-06
    -23.170  0.4187E-04  0.1483E-05
    -23.157  0.6687E-04  0.2404E-05
    -23.143  0.1058E-03  0.3860E-05
    -23.129  0.1659E-03  0.6143E-05
    -23.115  0.2575E-03  0.9688E-05
    -23.102  0.3961E-03  0.1514E-04
    -23.088  0.6036E-03  0.2345E-04
    -23.074  0.9111E-03  0.3599E-04
    -23.060  0.1362E-02  0.5475E-04
    -23.046  0.2018E-02  0.8253E-04
    -23.033  0.2962E-02  0.1233E-03
    -23.019  0.4305E-02  0.1826E-03
    -23.005  0.6201E-02  0.2679E-03
    -22.991  0.8847E-02  0.3897E-03
    -22.978  0.1250E-01  0.5618E-03
    -22.964  0.1751E-01  0.8028E-03
    -22.950  0.2429E-01  0.1137E-02
    -22.936  0.3339E-01  0.1597E-02
    -22.923  0.4547E-01  0.2223E-02
    -22.909  0.6134E-01  0.3067E-02
    -22.895  0.8200E-01  0.4196E-02
    -22.881  0.1086E+00  0.5691E-02
    -22.868  0.1426E+00  0.7653E-02
    -22.854  0.1854E+00  0.1021E-01
    -22.840  0.2389E+00  0.1349E-01
    -22.826  0.3052E+00  0.1769E-01
    -22.812  0.3862E+00  0.2301E-01
    -22.799  0.4845E+00  0.2968E-01
    -22.785  0.6025E+00  0.3797E-01
    -22.771  0.7427E+00  0.4820E-01
    -22.757  0.9075E+00  0.6069E-01
    -22.744  0.1099E+01  0.7582E-01
    -22.730  0.1321E+01  0.9400E-01
    -22.716  0.1573E+01  0.1157E+00
    -22.702  0.1859E+01  0.1412E+00
    -22.689  0.2179E+01  0.1712E+00
    -22.675  0.2533E+01  0.2061E+00
    -22.661  0.2923E+01  0.2463E+00
    -22.647  0.3347E+01  0.2924E+00
    -22.634  0.3805E+01  0.3448E+00
    -22.620  0.4295E+01  0.4039E+00
    -22.606  0.4815E+01  0.4702E+00
    -22.592  0.5362E+01  0.5440E+00
    -22.578  0.5934E+01  0.6257E+00
    -22.565  0.6527E+01  0.7155E+00
    -22.551  0.7137E+01  0.8138E+00
    -22.537  0.7760E+01  0.9206E+00
    -22.523  0.8394E+01  0.1036E+01
    -22.510  0.9035E+01  0.1161E+01
    -22.496  0.9677E+01  0.1294E+01
    -22.482  0.1032E+02  0.1436E+01
    -22.468  0.1095E+02  0.1587E+01
    -22.455  0.1158E+02  0.1746E+01
    -22.441  0.1219E+02  0.1914E+01
    -22.427  0.1279E+02  0.2090E+01
    -22.413  0.1336E+02  0.2274E+01
    -22.400  0.1391E+02  0.2465E+01
    -22.386  0.1443E+02  0.2664E+01
    -22.372  0.1491E+02  0.2869E+01
    -22.358  0.1534E+02  0.3080E+01
    -22.344  0.1574E+02  0.3297E+01
    -22.331  0.1608E+02  0.3518E+01
    -22.317  0.1636E+02  0.3743E+01
    -22.303  0.1659E+02  0.3972E+01
    -22.289  0.1677E+02  0.4203E+01
    -22.276  0.1688E+02  0.4435E+01
    -22.262  0.1693E+02  0.4668E+01
    -22.248  0.1692E+02  0.4901E+01
    -22.234  0.1686E+02  0.5133E+01
    -22.221  0.1675E+02  0.5364E+01
    -22.207  0.1659E+02  0.5592E+01
    -22.193  0.1640E+02  0.5818E+01
    -22.179  0.1617E+02  0.6040E+01
    -22.166  0.1592E+02  0.6260E+01
    -22.152  0.1565E+02  0.6475E+01
    -22.138  0.1538E+02  0.6687E+01
    -22.124  0.1511E+02  0.6895E+01
    -22.110  0.1485E+02  0.7099E+01
    -22.097  0.1460E+02  0.7300E+01
    -22.083  0.1438E+02  0.7498E+01
    -22.069  0.1419E+02  0.7693E+01
    -22.055  0.1403E+02  0.7886E+01
    -22.042  0.1390E+02  0.8078E+01
    -22.028  0.1382E+02  0.8268E+01
    -22.014  0.1378E+02  0.8458E+01
    -22.000  0.1378E+02  0.8647E+01
    -21.987  0.1383E+02  0.8838E+01
    -21.973  0.1392E+02  0.9029E+01
    -21.959  0.1404E+02  0.9223E+01
    -21.945  0.1421E+02  0.9418E+01
    -21.932  0.1440E+02  0.9616E+01
    -21.918  0.1463E+02  0.9818E+01
    -21.904  0.1489E+02  0.1002E+02
    -21.890  0.1517E+02  0.1023E+02
    -21.876  0.1547E+02  0.1044E+02
    -21.863  0.1578E+02  0.1066E+02
    -21.849  0.1610E+02  0.1088E+02
    -21.835  0.1643E+02  0.1111E+02
    -21.821  0.1676E+02  0.1134E+02
    -21.808  0.1708E+02  0.1158E+02
    -21.794  0.1740E+02  0.1181E+02
    -21.780  0.1771E+02  0.1206E+02
    -21.766  0.1801E+02  0.1231E+02
    -21.753  0.1828E+02  0.1256E+02
    -21.739  0.1855E+02  0.1281E+02
    -21.725  0.1879E+02  0.1307E+02
    -21.711  0.1901E+02  0.1333E+02
    -21.698  0.1921E+02  0.1360E+02
    -21.684  0.1938E+02  0.1386E+02
    -21.670  0.1954E+02  0.1413E+02
    -21.656  0.1968E+02  0.1440E+02
    -21.642  0.1979E+02  0.1468E+02
    -21.629  0.1990E+02  0.1495E+02
    -21.615  0.1998E+02  0.1523E+02
    -21.601  0.2006E+02  0.1550E+02
    -21.587  0.2013E+02  0.1578E+02
    -21.574  0.2020E+02  0.1606E+02
    -21.560  0.2027E+02  0.1634E+02
    -21.546  0.2034E+02  0.1662E+02
    -21.532  0.2041E+02  0.1690E+02
    -21.519  0.2050E+02  0.1718E+02
    -21.505  0.2060E+02  0.1746E+02
    -21.491  0.2071E+02  0.1775E+02
    -21.477  0.2083E+02  0.1803E+02
    -21.464  0.2097E+02  0.1832E+02
    -21.450  0.2113E+02  0.1861E+02
    -21.436  0.2129E+02  0.1891E+02
    -21.422  0.2147E+02  0.1920E+02
    -21.408  0.2166E+02  0.1950E+02
    -21.395  0.2185E+02  0.1980E+02
    -21.381  0.2205E+02  0.2011E+02
    -21.367  0.2224E+02  0.2041E+02
    -21.353  0.2242E+02  0.2072E+02
    -21.340  0.2259E+02  0.2103E+02
    -21.326  0.2275E+02  0.2134E+02
    -21.312  0.2289E+02  0.2166E+02
    -21.298  0.2301E+02  0.2198E+02
    -21.285  0.2310E+02  0.2229E+02
    -21.271  0.2317E+02  0.2261E+02
    -21.257  0.2321E+02  0.2293E+02
    -21.243  0.2323E+02  0.2325E+02
    -21.230  0.2321E+02  0.2357E+02
    -21.216  0.2318E+02  0.2389E+02
    -21.202  0.2312E+02  0.2421E+02
    -21.188  0.2304E+02  0.2453E+02
    -21.174  0.2294E+02  0.2484E+02
    -21.161  0.2284E+02  0.2516E+02
    -21.147  0.2273E+02  0.2547E+02
    -21.133  0.2263E+02  0.2578E+02
    -21.119  0.2253E+02  0.2609E+02
    -21.106  0.2245E+02  0.2640E+02
    -21.092  0.2238E+02  0.2671E+02
    -21.078  0.2235E+02  0.2702E+02
    -21.064  0.2234E+02  0.2732E+02
    -21.051  0.2236E+02  0.2763E+02
    -21.037  0.2243E+02  0.2794E+02
    -21.023  0.2253E+02  0.2825E+02
    -21.009  0.2266E+02  0.2856E+02
    -20.995  0.2284E+02  0.2888E+02
    -20.982  0.2304E+02  0.2919E+02
    -20.968  0.2326E+02  0.2951E+02
    -20.954  0.2351E+02  0.2984E+02
    -20.940  0.2377E+02  0.3016E+02
    -20.927  0.2403E+02  0.3050E+02
    -20.913  0.2428E+02  0.3083E+02
    -20.899  0.2453E+02  0.3117E+02
    -20.885  0.2475E+02  0.3151E+02
    -20.872  0.2494E+02  0.3185E+02
    -20.858  0.2509E+02  0.3220E+02
    -20.844  0.2521E+02  0.3254E+02
    -20.830  0.2528E+02  0.3289E+02
    -20.817  0.2531E+02  0.3324E+02
    -20.803  0.2529E+02  0.3359E+02
    -20.789  0.2522E+02  0.3394E+02
    -20.775  0.2512E+02  0.3428E+02
    -20.761  0.2497E+02  0.3462E+02
    -20.748  0.2478E+02  0.3497E+02
    -20.734  0.2457E+02  0.3530E+02
    -20.720  0.2433E+02  0.3564E+02
    -20.706  0.2407E+02  0.3597E+02
    -20.693  0.2381E+02  0.3630E+02
    -20.679  0.2354E+02  0.3662E+02
    -20.665  0.2327E+02  0.3694E+02
    -20.651  0.2301E+02  0.3726E+02
    -20.638  0.2277E+02  0.3757E+02
    -20.624  0.2255E+02  0.3788E+02
    -20.610  0.2235E+02  0.3819E+02
    -20.596  0.2219E+02  0.3850E+02
    -20.583  0.2205E+02  0.3880E+02
    -20.569  0.2196E+02  0.3910E+02
    -20.555  0.2190E+02  0.3940E+02
    -20.541  0.2187E+02  0.3970E+02
    -20.527  0.2188E+02  0.4001E+02
    -20.514  0.2193E+02  0.4031E+02
    -20.500  0.2200E+02  0.4061E+02
    -20.486  0.2211E+02  0.4091E+02
    -20.472  0.2224E+02  0.4122E+02
    -20.459  0.2239E+02  0.4153E+02
    -20.445  0.2255E+02  0.4184E+02
    -20.431  0.2273E+02  0.4215E+02
    -20.417  0.2290E+02  0.4247E+02
    -20.404  0.2308E+02  0.4278E+02
    -20.390  0.2324E+02  0.4310E+02
    -20.376  0.2340E+02  0.4343E+02
    -20.362  0.2354E+02  0.4375E+02
    -20.349  0.2367E+02  0.4408E+02
    -20.335  0.2378E+02  0.4440E+02
    -20.321  0.2387E+02  0.4473E+02
    -20.307  0.2394E+02  0.4506E+02
    -20.293  0.2399E+02  0.4539E+02
    -20.280  0.2404E+02  0.4572E+02
    -20.266  0.2407E+02  0.4605E+02
    -20.252  0.2409E+02  0.4639E+02
    -20.238  0.2412E+02  0.4672E+02
    -20.225  0.2415E+02  0.4705E+02
    -20.211  0.2418E+02  0.4738E+02
    -20.197  0.2423E+02  0.4772E+02
    -20.183  0.2429E+02  0.4805E+02
    -20.170  0.2436E+02  0.4839E+02
    -20.156  0.2444E+02  0.4872E+02
    -20.142  0.2454E+02  0.4906E+02
    -20.128  0.2466E+02  0.4940E+02
    -20.115  0.2478E+02  0.4974E+02
    -20.101  0.2490E+02  0.5008E+02
    -20.087  0.2503E+02  0.5043E+02
    -20.073  0.2514E+02  0.5077E+02
    -20.059  0.2525E+02  0.5112E+02
    -20.046  0.2535E+02  0.5147E+02
    -20.032  0.2542E+02  0.5182E+02
    -20.018  0.2547E+02  0.5217E+02
    -20.004  0.2549E+02  0.5252E+02
    -19.991  0.2549E+02  0.5287E+02
    -19.977  0.2545E+02  0.5322E+02
    -19.963  0.2539E+02  0.5357E+02
    -19.949  0.2530E+02  0.5392E+02
    -19.936  0.2519E+02  0.5427E+02
    -19.922  0.2507E+02  0.5461E+02
    -19.908  0.2493E+02  0.5496E+02
    -19.894  0.2480E+02  0.5530E+02
    -19.881  0.2466E+02  0.5564E+02
    -19.867  0.2453E+02  0.5598E+02
    -19.853  0.2442E+02  0.5631E+02
    -19.839  0.2433E+02  0.5665E+02
    -19.825  0.2427E+02  0.5698E+02
    -19.812  0.2423E+02  0.5731E+02
    -19.798  0.2422E+02  0.5765E+02
    -19.784  0.2424E+02  0.5798E+02
    -19.770  0.2429E+02  0.5832E+02
    -19.757  0.2435E+02  0.5865E+02
    -19.743  0.2444E+02  0.5899E+02
    -19.729  0.2454E+02  0.5932E+02
    -19.715  0.2465E+02  0.5966E+02
    -19.702  0.2475E+02  0.6000E+02
    -19.688  0.2485E+02  0.6035E+02
    -19.674  0.2494E+02  0.6069E+02
    -19.660  0.2501E+02  0.6103E+02
    -19.647  0.2506E+02  0.6138E+02
    -19.633  0.2508E+02  0.6172E+02
    -19.619  0.2507E+02  0.6207E+02
    -19.605  0.2503E+02  0.6241E+02
    -19.591  0.2496E+02  0.6276E+02
    -19.578  0.2487E+02  0.6310E+02
    -19.564  0.2474E+02  0.6344E+02
    -19.550  0.2460E+02  0.6378E+02
    -19.536  0.2444E+02  0.6412E+02
    -19.523  0.2428E+02  0.6445E+02
    -19.509  0.2411E+02  0.6478E+02
    -19.495  0.2395E+02  0.6511E+02
    -19.481  0.2380E+02  0.6544E+02
    -19.468  0.2367E+02  0.6576E+02
    -19.454  0.2356E+02  0.6609E+02
    -19.440  0.2348E+02  0.6641E+02
    -19.426  0.2344E+02  0.6674E+02
    -19.413  0.2344E+02  0.6706E+02
    -19.399  0.2348E+02  0.6738E+02
    -19.385  0.2356E+02  0.6771E+02
    -19.371  0.2368E+02  0.6803E+02
    -19.357  0.2383E+02  0.6836E+02
    -19.344  0.2402E+02  0.6869E+02
    -19.330  0.2424E+02  0.6902E+02
    -19.316  0.2449E+02  0.6936E+02
    -19.302  0.2476E+02  0.6970E+02
    -19.289  0.2504E+02  0.7005E+02
    -19.275  0.2533E+02  0.7039E+02
    -19.261  0.2562E+02  0.7075E+02
    -19.247  0.2592E+02  0.7110E+02
    -19.234  0.2620E+02  0.7147E+02
    -19.220  0.2647E+02  0.7183E+02
    -19.206  0.2673E+02  0.7220E+02
    -19.192  0.2697E+02  0.7257E+02
    -19.178  0.2719E+02  0.7294E+02
    -19.165  0.2739E+02  0.7332E+02
    -19.151  0.2756E+02  0.7370E+02
    -19.137  0.2771E+02  0.7408E+02
    -19.123  0.2783E+02  0.7446E+02
    -19.110  0.2792E+02  0.7485E+02
    -19.096  0.2799E+02  0.7523E+02
    -19.082  0.2803E+02  0.7562E+02
    -19.068  0.2805E+02  0.7601E+02
    -19.055  0.2803E+02  0.7639E+02
    -19.041  0.2798E+02  0.7678E+02
    -19.027  0.2791E+02  0.7716E+02
    -19.013  0.2780E+02  0.7754E+02
    -19.000  0.2767E+02  0.7792E+02
    -18.986  0.2750E+02  0.7830E+02
    -18.972  0.2730E+02  0.7868E+02
    -18.958  0.2707E+02  0.7905E+02
    -18.944  0.2682E+02  0.7942E+02
    -18.931  0.2654E+02  0.7979E+02
    -18.917  0.2623E+02  0.8015E+02
    -18.903  0.2591E+02  0.8050E+02
    -18.889  0.2558E+02  0.8086E+02
    -18.876  0.2523E+02  0.8120E+02
    -18.862  0.2489E+02  0.8155E+02
    -18.848  0.2455E+02  0.8188E+02
    -18.834  0.2423E+02  0.8222E+02
    -18.821  0.2392E+02  0.8255E+02
    -18.807  0.2364E+02  0.8287E+02
    -18.793  0.2339E+02  0.8319E+02
    -18.779  0.2319E+02  0.8351E+02
    -18.766  0.2303E+02  0.8383E+02
    -18.752  0.2291E+02  0.8415E+02
    -18.738  0.2285E+02  0.8446E+02
    -18.724  0.2284E+02  0.8477E+02
    -18.710  0.2288E+02  0.8509E+02
    -18.697  0.2298E+02  0.8541E+02
    -18.683  0.2311E+02  0.8572E+02
    -18.669  0.2329E+02  0.8604E+02
    -18.655  0.2350E+02  0.8637E+02
    -18.642  0.2374E+02  0.8669E+02
    -18.628  0.2400E+02  0.8702E+02
    -18.614  0.2427E+02  0.8736E+02
    -18.600  0.2454E+02  0.8770E+02
    -18.587  0.2481E+02  0.8804E+02
    -18.573  0.2507E+02  0.8838E+02
    -18.559  0.2532E+02  0.8873E+02
    -18.545  0.2555E+02  0.8908E+02
    -18.532  0.2575E+02  0.8944E+02
    -18.518  0.2593E+02  0.8979E+02
    -18.504  0.2609E+02  0.9015E+02
    -18.490  0.2622E+02  0.9051E+02
    -18.476  0.2633E+02  0.9088E+02
    -18.463  0.2643E+02  0.9124E+02
    -18.449  0.2651E+02  0.9161E+02
    -18.435  0.2658E+02  0.9197E+02
    -18.421  0.2664E+02  0.9234E+02
    -18.408  0.2671E+02  0.9271E+02
    -18.394  0.2678E+02  0.9307E+02
    -18.380  0.2685E+02  0.9344E+02
    -18.366  0.2694E+02  0.9382E+02
    -18.353  0.2703E+02  0.9419E+02
    -18.339  0.2714E+02  0.9456E+02
    -18.325  0.2726E+02  0.9494E+02
    -18.311  0.2739E+02  0.9531E+02
    -18.298  0.2753E+02  0.9569E+02
    -18.284  0.2768E+02  0.9607E+02
    -18.270  0.2783E+02  0.9646E+02
    -18.256  0.2798E+02  0.9684E+02
    -18.242  0.2812E+02  0.9723E+02
    -18.229  0.2825E+02  0.9762E+02
    -18.215  0.2837E+02  0.9801E+02
    -18.201  0.2847E+02  0.9840E+02
    -18.187  0.2854E+02  0.9879E+02
    -18.174  0.2860E+02  0.9919E+02
    -18.160  0.2862E+02  0.9958E+02
    -18.146  0.2861E+02  0.9997E+02
    -18.132  0.2857E+02  0.1004E+03
    -18.119  0.2850E+02  0.1008E+03
    -18.105  0.2840E+02  0.1012E+03
    -18.091  0.2827E+02  0.1015E+03
    -18.077  0.2812E+02  0.1019E+03
    -18.064  0.2794E+02  0.1023E+03
    -18.050  0.2773E+02  0.1027E+03
    -18.036  0.2751E+02  0.1031E+03
    -18.022  0.2728E+02  0.1034E+03
    -18.008  0.2704E+02  0.1038E+03
    -17.995  0.2679E+02  0.1042E+03
    -17.981  0.2653E+02  0.1046E+03
    -17.967  0.2628E+02  0.1049E+03
    -17.953  0.2603E+02  0.1053E+03
    -17.940  0.2580E+02  0.1056E+03
    -17.926  0.2557E+02  0.1060E+03
    -17.912  0.2536E+02  0.1063E+03
    -17.898  0.2516E+02  0.1067E+03
    -17.885  0.2498E+02  0.1070E+03
    -17.871  0.2483E+02  0.1074E+03
    -17.857  0.2469E+02  0.1077E+03
    -17.843  0.2458E+02  0.1080E+03
    -17.830  0.2449E+02  0.1084E+03
    -17.816  0.2443E+02  0.1087E+03
    -17.802  0.2439E+02  0.1090E+03
    -17.788  0.2438E+02  0.1094E+03
    -17.774  0.2439E+02  0.1097E+03
    -17.761  0.2442E+02  0.1101E+03
    -17.747  0.2447E+02  0.1104E+03
    -17.733  0.2454E+02  0.1107E+03
    -17.719  0.2463E+02  0.1111E+03
    -17.706  0.2473E+02  0.1114E+03
    -17.692  0.2484E+02  0.1118E+03
    -17.678  0.2495E+02  0.1121E+03
    -17.664  0.2508E+02  0.1124E+03
    -17.651  0.2520E+02  0.1128E+03
    -17.637  0.2532E+02  0.1131E+03
    -17.623  0.2544E+02  0.1135E+03
    -17.609  0.2556E+02  0.1138E+03
    -17.596  0.2567E+02  0.1142E+03
    -17.582  0.2578E+02  0.1145E+03
    -17.568  0.2587E+02  0.1149E+03
    -17.554  0.2597E+02  0.1153E+03
    -17.540  0.2606E+02  0.1156E+03
    -17.527  0.2615E+02  0.1160E+03
    -17.513  0.2623E+02  0.1163E+03
    -17.499  0.2632E+02  0.1167E+03
    -17.485  0.2640E+02  0.1171E+03
    -17.472  0.2649E+02  0.1174E+03
    -17.458  0.2657E+02  0.1178E+03
    -17.444  0.2665E+02  0.1182E+03
    -17.430  0.2673E+02  0.1185E+03
    -17.417  0.2680E+02  0.1189E+03
    -17.403  0.2686E+02  0.1193E+03
    -17.389  0.2691E+02  0.1196E+03
    -17.375  0.2694E+02  0.1200E+03
    -17.362  0.2695E+02  0.1204E+03
    -17.348  0.2694E+02  0.1208E+03
    -17.334  0.2691E+02  0.1211E+03
    -17.320  0.2685E+02  0.1215E+03
    -17.306  0.2676E+02  0.1219E+03
    -17.293  0.2665E+02  0.1222E+03
    -17.279  0.2651E+02  0.1226E+03
    -17.265  0.2635E+02  0.1230E+03
    -17.251  0.2617E+02  0.1233E+03
    -17.238  0.2598E+02  0.1237E+03
    -17.224  0.2579E+02  0.1240E+03
    -17.210  0.2559E+02  0.1244E+03
    -17.196  0.2539E+02  0.1247E+03
    -17.183  0.2520E+02  0.1251E+03
    -17.169  0.2502E+02  0.1254E+03
    -17.155  0.2486E+02  0.1258E+03
    -17.141  0.2472E+02  0.1261E+03
    -17.127  0.2460E+02  0.1264E+03
    -17.114  0.2450E+02  0.1268E+03
    -17.100  0.2442E+02  0.1271E+03
    -17.086  0.2437E+02  0.1275E+03
    -17.072  0.2433E+02  0.1278E+03
    -17.059  0.2432E+02  0.1281E+03
    -17.045  0.2431E+02  0.1285E+03
    -17.031  0.2432E+02  0.1288E+03
    -17.017  0.2434E+02  0.1291E+03
    -17.004  0.2436E+02  0.1295E+03
    -16.990  0.2438E+02  0.1298E+03
    -16.976  0.2441E+02  0.1301E+03
    -16.962  0.2444E+02  0.1305E+03
    -16.949  0.2447E+02  0.1308E+03
    -16.935  0.2450E+02  0.1311E+03
    -16.921  0.2453E+02  0.1315E+03
    -16.907  0.2457E+02  0.1318E+03
    -16.893  0.2461E+02  0.1322E+03
    -16.880  0.2465E+02  0.1325E+03
    -16.866  0.2470E+02  0.1328E+03
    -16.852  0.2476E+02  0.1332E+03
    -16.838  0.2482E+02  0.1335E+03
    -16.825  0.2489E+02  0.1339E+03
    -16.811  0.2496E+02  0.1342E+03
    -16.797  0.2504E+02  0.1346E+03
    -16.783  0.2511E+02  0.1349E+03
    -16.770  0.2519E+02  0.1352E+03
    -16.756  0.2526E+02  0.1356E+03
    -16.742  0.2532E+02  0.1359E+03
    -16.728  0.2537E+02  0.1363E+03
    -16.715  0.2541E+02  0.1366E+03
    -16.701  0.2544E+02  0.1370E+03
    -16.687  0.2544E+02  0.1373E+03
    -16.673  0.2544E+02  0.1377E+03
    -16.659  0.2541E+02  0.1380E+03
    -16.646  0.2537E+02  0.1384E+03
    -16.632  0.2531E+02  0.1387E+03
    -16.618  0.2524E+02  0.1391E+03
    -16.604  0.2516E+02  0.1394E+03
    -16.591  0.2506E+02  0.1398E+03
    -16.577  0.2496E+02  0.1401E+03
    -16.563  0.2485E+02  0.1405E+03
    -16.549  0.2473E+02  0.1408E+03
    -16.536  0.2462E+02  0.1411E+03
    -16.522  0.2450E+02  0.1415E+03
    -16.508  0.2439E+02  0.1418E+03
    -16.494  0.2428E+02  0.1421E+03
    -16.481  0.2418E+02  0.1425E+03
    -16.467  0.2408E+02  0.1428E+03
    -16.453  0.2399E+02  0.1431E+03
    -16.439  0.2390E+02  0.1435E+03
    -16.425  0.2381E+02  0.1438E+03
    -16.412  0.2372E+02  0.1441E+03
    -16.398  0.2364E+02  0.1444E+03
    -16.384  0.2355E+02  0.1448E+03
    -16.370  0.2346E+02  0.1451E+03
    -16.357  0.2336E+02  0.1454E+03
    -16.343  0.2326E+02  0.1457E+03
    -16.329  0.2314E+02  0.1461E+03
    -16.315  0.2303E+02  0.1464E+03
    -16.302  0.2290E+02  0.1467E+03
    -16.288  0.2277E+02  0.1470E+03
    -16.274  0.2264E+02  0.1473E+03
    -16.260  0.2251E+02  0.1476E+03
    -16.247  0.2237E+02  0.1479E+03
    -16.233  0.2225E+02  0.1482E+03
    -16.219  0.2213E+02  0.1485E+03
    -16.205  0.2202E+02  0.1488E+03
    -16.191  0.2193E+02  0.1491E+03
    -16.178  0.2185E+02  0.1494E+03
    -16.164  0.2180E+02  0.1497E+03
    -16.150  0.2177E+02  0.1500E+03
    -16.136  0.2176E+02  0.1503E+03
    -16.123  0.2178E+02  0.1506E+03
    -16.109  0.2182E+02  0.1509E+03
    -16.095  0.2188E+02  0.1512E+03
    -16.081  0.2196E+02  0.1516E+03
    -16.068  0.2206E+02  0.1519E+03
    -16.054  0.2218E+02  0.1522E+03
    -16.040  0.2230E+02  0.1525E+03
    -16.026  0.2243E+02  0.1528E+03
    -16.013  0.2256E+02  0.1531E+03
    -15.999  0.2270E+02  0.1534E+03
    -15.985  0.2282E+02  0.1537E+03
    -15.971  0.2294E+02  0.1540E+03
    -15.957  0.2305E+02  0.1543E+03
    -15.944  0.2315E+02  0.1547E+03
    -15.930  0.2324E+02  0.1550E+03
    -15.916  0.2331E+02  0.1553E+03
    -15.902  0.2337E+02  0.1556E+03
    -15.889  0.2342E+02  0.1559E+03
    -15.875  0.2346E+02  0.1563E+03
    -15.861  0.2348E+02  0.1566E+03
    -15.847  0.2350E+02  0.1569E+03
    -15.834  0.2351E+02  0.1572E+03
    -15.820  0.2351E+02  0.1576E+03
    -15.806  0.2351E+02  0.1579E+03
    -15.792  0.2350E+02  0.1582E+03
    -15.779  0.2349E+02  0.1585E+03
    -15.765  0.2347E+02  0.1589E+03
    -15.751  0.2345E+02  0.1592E+03
    -15.737  0.2343E+02  0.1595E+03
    -15.723  0.2341E+02  0.1598E+03
    -15.710  0.2339E+02  0.1601E+03
    -15.696  0.2338E+02  0.1605E+03
    -15.682  0.2336E+02  0.1608E+03
    -15.668  0.2335E+02  0.1611E+03
    -15.655  0.2335E+02  0.1614E+03
    -15.641  0.2336E+02  0.1618E+03
    -15.627  0.2337E+02  0.1621E+03
    -15.613  0.2339E+02  0.1624E+03
    -15.600  0.2343E+02  0.1627E+03
    -15.586  0.2347E+02  0.1630E+03
    -15.572  0.2352E+02  0.1634E+03
    -15.558  0.2359E+02  0.1637E+03
    -15.545  0.2367E+02  0.1640E+03
    -15.531  0.2376E+02  0.1643E+03
    -15.517  0.2386E+02  0.1647E+03
    -15.503  0.2397E+02  0.1650E+03
    -15.489  0.2410E+02  0.1653E+03
    -15.476  0.2423E+02  0.1657E+03
    -15.462  0.2438E+02  0.1660E+03
    -15.448  0.2453E+02  0.1663E+03
    -15.434  0.2470E+02  0.1667E+03
    -15.421  0.2488E+02  0.1670E+03
    -15.407  0.2506E+02  0.1674E+03
    -15.393  0.2526E+02  0.1677E+03
    -15.379  0.2546E+02  0.1681E+03
    -15.366  0.2568E+02  0.1684E+03
    -15.352  0.2590E+02  0.1688E+03
    -15.338  0.2613E+02  0.1691E+03
    -15.324  0.2636E+02  0.1695E+03
    -15.310  0.2660E+02  0.1699E+03
    -15.297  0.2685E+02  0.1702E+03
    -15.283  0.2709E+02  0.1706E+03
    -15.269  0.2734E+02  0.1710E+03
    -15.255  0.2758E+02  0.1714E+03
    -15.242  0.2781E+02  0.1718E+03
    -15.228  0.2803E+02  0.1721E+03
    -15.214  0.2823E+02  0.1725E+03
    -15.200  0.2841E+02  0.1729E+03
    -15.187  0.2857E+02  0.1733E+03
    -15.173  0.2870E+02  0.1737E+03
    -15.159  0.2881E+02  0.1741E+03
    -15.145  0.2888E+02  0.1745E+03
    -15.132  0.2891E+02  0.1749E+03
    -15.118  0.2891E+02  0.1753E+03
    -15.104  0.2888E+02  0.1757E+03
    -15.090  0.2882E+02  0.1761E+03
    -15.076  0.2873E+02  0.1765E+03
    -15.063  0.2861E+02  0.1769E+03
    -15.049  0.2848E+02  0.1773E+03
    -15.035  0.2833E+02  0.1777E+03
    -15.021  0.2818E+02  0.1780E+03
    -15.008  0.2803E+02  0.1784E+03
    -14.994  0.2788E+02  0.1788E+03
    -14.980  0.2774E+02  0.1792E+03
    -14.966  0.2761E+02  0.1796E+03
    -14.953  0.2751E+02  0.1800E+03
    -14.939  0.2743E+02  0.1803E+03
    -14.925  0.2738E+02  0.1807E+03
    -14.911  0.2736E+02  0.1811E+03
    -14.898  0.2736E+02  0.1815E+03
    -14.884  0.2739E+02  0.1818E+03
    -14.870  0.2743E+02  0.1822E+03
    -14.856  0.2750E+02  0.1826E+03
    -14.842  0.2758E+02  0.1830E+03
    -14.829  0.2767E+02  0.1834E+03
    -14.815  0.2777E+02  0.1837E+03
    -14.801  0.2786E+02  0.1841E+03
    -14.787  0.2794E+02  0.1845E+03
    -14.774  0.2802E+02  0.1849E+03
    -14.760  0.2808E+02  0.1853E+03
    -14.746  0.2811E+02  0.1857E+03
    -14.732  0.2813E+02  0.1861E+03
    -14.719  0.2812E+02  0.1864E+03
    -14.705  0.2808E+02  0.1868E+03
    -14.691  0.2802E+02  0.1872E+03
    -14.677  0.2793E+02  0.1876E+03
    -14.664  0.2781E+02  0.1880E+03
    -14.650  0.2767E+02  0.1884E+03
    -14.636  0.2751E+02  0.1887E+03
    -14.622  0.2733E+02  0.1891E+03
    -14.608  0.2713E+02  0.1895E+03
    -14.595  0.2692E+02  0.1899E+03
    -14.581  0.2670E+02  0.1902E+03
    -14.567  0.2647E+02  0.1906E+03
    -14.553  0.2624E+02  0.1910E+03
    -14.540  0.2600E+02  0.1913E+03
    -14.526  0.2578E+02  0.1917E+03
    -14.512  0.2555E+02  0.1920E+03
    -14.498  0.2534E+02  0.1924E+03
    -14.485  0.2515E+02  0.1927E+03
    -14.471  0.2497E+02  0.1931E+03
    -14.457  0.2481E+02  0.1934E+03
    -14.443  0.2468E+02  0.1937E+03
    -14.430  0.2457E+02  0.1941E+03
    -14.416  0.2449E+02  0.1944E+03
    -14.402  0.2444E+02  0.1948E+03
    -14.388  0.2442E+02  0.1951E+03
    -14.374  0.2442E+02  0.1954E+03
    -14.361  0.2446E+02  0.1958E+03
    -14.347  0.2452E+02  0.1961E+03
    -14.333  0.2461E+02  0.1964E+03
    -14.319  0.2472E+02  0.1968E+03
    -14.306  0.2485E+02  0.1971E+03
    -14.292  0.2499E+02  0.1975E+03
    -14.278  0.2514E+02  0.1978E+03
    -14.264  0.2530E+02  0.1982E+03
    -14.251  0.2546E+02  0.1985E+03
    -14.237  0.2561E+02  0.1989E+03
    -14.223  0.2577E+02  0.1992E+03
    -14.209  0.2591E+02  0.1996E+03
    -14.196  0.2604E+02  0.1999E+03
    -14.182  0.2615E+02  0.2003E+03
    -14.168  0.2625E+02  0.2007E+03
    -14.154  0.2634E+02  0.2010E+03
    -14.140  0.2640E+02  0.2014E+03
    -14.127  0.2645E+02  0.2017E+03
    -14.113  0.2648E+02  0.2021E+03
    -14.099  0.2650E+02  0.2025E+03
    -14.085  0.2650E+02  0.2028E+03
    -14.072  0.2649E+02  0.2032E+03
    -14.058  0.2647E+02  0.2036E+03
    -14.044  0.2645E+02  0.2039E+03
    -14.030  0.2642E+02  0.2043E+03
    -14.017  0.2640E+02  0.2047E+03
    -14.003  0.2638E+02  0.2050E+03
    -13.989  0.2636E+02  0.2054E+03
    -13.975  0.2636E+02  0.2057E+03
    -13.962  0.2638E+02  0.2061E+03
    -13.948  0.2641E+02  0.2065E+03
    -13.934  0.2645E+02  0.2068E+03
    -13.920  0.2652E+02  0.2072E+03
    -13.906  0.2660E+02  0.2076E+03
    -13.893  0.2669E+02  0.2079E+03
    -13.879  0.2680E+02  0.2083E+03
    -13.865  0.2692E+02  0.2087E+03
    -13.851  0.2704E+02  0.2090E+03
    -13.838  0.2717E+02  0.2094E+03
    -13.824  0.2729E+02  0.2098E+03
    -13.810  0.2741E+02  0.2102E+03
    -13.796  0.2750E+02  0.2106E+03
    -13.783  0.2758E+02  0.2109E+03
    -13.769  0.2763E+02  0.2113E+03
    -13.755  0.2765E+02  0.2117E+03
    -13.741  0.2764E+02  0.2121E+03
    -13.728  0.2759E+02  0.2125E+03
    -13.714  0.2750E+02  0.2128E+03
    -13.700  0.2737E+02  0.2132E+03
    -13.686  0.2721E+02  0.2136E+03
    -13.672  0.2701E+02  0.2140E+03
    -13.659  0.2677E+02  0.2143E+03
    -13.645  0.2650E+02  0.2147E+03
    -13.631  0.2621E+02  0.2150E+03
    -13.617  0.2589E+02  0.2154E+03
    -13.604  0.2556E+02  0.2158E+03
    -13.590  0.2522E+02  0.2161E+03
    -13.576  0.2488E+02  0.2164E+03
    -13.562  0.2454E+02  0.2168E+03
    -13.549  0.2420E+02  0.2171E+03
    -13.535  0.2388E+02  0.2174E+03
    -13.521  0.2358E+02  0.2178E+03
    -13.507  0.2330E+02  0.2181E+03
    -13.493  0.2304E+02  0.2184E+03
    -13.480  0.2282E+02  0.2187E+03
    -13.466  0.2263E+02  0.2190E+03
    -13.452  0.2248E+02  0.2193E+03
    -13.438  0.2238E+02  0.2197E+03
    -13.425  0.2231E+02  0.2200E+03
    -13.411  0.2229E+02  0.2203E+03
    -13.397  0.2232E+02  0.2206E+03
    -13.383  0.2239E+02  0.2209E+03
    -13.370  0.2252E+02  0.2212E+03
    -13.356  0.2269E+02  0.2215E+03
    -13.342  0.2290E+02  0.2218E+03
    -13.328  0.2316E+02  0.2221E+03
    -13.315  0.2346E+02  0.2225E+03
    -13.301  0.2379E+02  0.2228E+03
    -13.287  0.2416E+02  0.2231E+03
    -13.273  0.2456E+02  0.2235E+03
    -13.259  0.2498E+02  0.2238E+03
    -13.246  0.2541E+02  0.2242E+03
    -13.232  0.2586E+02  0.2245E+03
    -13.218  0.2630E+02  0.2249E+03
    -13.204  0.2675E+02  0.2252E+03
    -13.191  0.2719E+02  0.2256E+03
    -13.177  0.2762E+02  0.2260E+03
    -13.163  0.2802E+02  0.2264E+03
    -13.149  0.2841E+02  0.2268E+03
    -13.136  0.2877E+02  0.2272E+03