 138 138   0   0
  0.2657342E+02  0.2130000E-08  0.1721659E-08  0.1000000E-08  0.5000000E-15
  1.000000000000000E-004
  CAR 
 unknown system                          
      6.02014643    -25.03814133 2000     -1.10585562      1.00000000
    -25.038  0.0000E+00  0.0000E+00
    -25.023  0.0000E+00  0.0000E+00
    -25.007  0.0000E+00  0.0000E+00
    -24.992  0.0000E+00  0.0000E+00
    -24.976  0.0000E+00  0.0000E+00
    -24.960  0.0000E+00  0.0000E+00
    -24.945  0.0000E+00  0.0000E+00
    -24.929  0.0000E+00  0.0000E+00
    -24.914  0.0000E+00  0.0000E+00
    -24.898  0.0000E+00  0.0000E+00
    -24.883  0.0000E+00  0.0000E+00
    -24.867  0.0000E+00  0.0000E+00
    -24.852  0.0000E+00  0.0000E+00
    -24.836  0.0000E+00  0.0000E+00
    -24.821  0.0000E+00  0.0000E+00
    -24.805  0.0000E+00  0.0000E+00
    -24.790  0.0000E+00  0.0000E+00
    -24.774  0.0000E+00  0.0000E+00
    -24.758  0.0000E+00  0.0000E+00
    -24.743  0.0000E+00  0.0000E+00
    -24.727  0.0000E+00  0.0000E+00
    -24.712  0.0000E+00  0.0000E+00
    -24.696  0.0000E+00  0.0000E+00
    -24.681  0.0000E+00  0.0000E+00
    -24.665  0.0000E+00  0.0000E+00
    -24.650  0.0000E+00  0.0000E+00
    -24.634  0.0000E+00  0.0000E+00
    -24.619  0.0000E+00  0.0000E+00
    -24.603  0.0000E+00  0.0000E+00
    -24.588  0.0000E+00  0.0000E+00
    -24.572  0.0000E+00  0.0000E+00
    -24.556  0.0000E+00  0.0000E+00
    -24.541  0.0000E+00  0.0000E+00
    -24.525  0.0000E+00  0.0000E+00
    -24.510  0.0000E+00  0.0000E+00
    -24.494  0.0000E+00  0.0000E+00
    -24.479  0.0000E+00  0.0000E+00
    -24.463  0.0000E+00  0.0000E+00
    -24.448  0.0000E+00  0.0000E+00
    -24.432  0.0000E+00  0.0000E+00
    -24.417  0.0000E+00  0.0000E+00
    -24.401  0.0000E+00  0.0000E+00
    -24.386  0.0000E+00  0.0000E+00
    -24.370  0.0000E+00  0.0000E+00
    -24.355  0.0000E+00  0.0000E+00
    -24.339  0.0000E+00  0.0000E+00
    -24.323  0.0000E+00  0.0000E+00
    -24.308  0.0000E+00  0.0000E+00
    -24.292  0.0000E+00  0.0000E+00
    -24.277  0.0000E+00  0.0000E+00
    -24.261  0.0000E+00  0.0000E+00
    -24.246  0.0000E+00  0.0000E+00
    -24.230  0.0000E+00  0.0000E+00
    -24.215  0.7146E-14  0.1110E-15
    -24.199  0.7146E-14  0.2220E-15
    -24.184  0.2144E-13  0.5551E-15
    -24.168  0.5002E-13  0.1332E-14
    -24.153  0.1215E-12  0.3220E-14
    -24.137  0.3001E-12  0.7883E-14
    -24.121  0.6860E-12  0.1854E-13
    -24.106  0.1596E-11  0.4334E-13
    -24.090  0.3659E-11  0.1002E-12
    -24.075  0.8278E-11  0.2288E-12
    -24.059  0.1851E-10  0.5163E-12
    -24.044  0.4088E-10  0.1151E-11
    -24.028  0.8922E-10  0.2538E-11
    -24.013  0.1924E-09  0.5527E-11
    -23.997  0.4099E-09  0.1189E-10
    -23.982  0.8628E-09  0.2530E-10
    -23.966  0.1794E-08  0.5318E-10
    -23.951  0.3687E-08  0.1105E-09
    -23.935  0.7485E-08  0.2268E-09
    -23.919  0.1501E-07  0.4600E-09
    -23.904  0.2975E-07  0.9223E-09
    -23.888  0.5826E-07  0.1827E-08
    -23.873  0.1127E-06  0.3579E-08
    -23.857  0.2154E-06  0.6926E-08
    -23.842  0.4068E-06  0.1325E-07
    -23.826  0.7591E-06  0.2504E-07
    -23.811  0.1399E-05  0.4678E-07
    -23.795  0.2549E-05  0.8638E-07
    -23.780  0.4586E-05  0.1576E-06
    -23.764  0.8155E-05  0.2843E-06
    -23.749  0.1433E-04  0.5069E-06
    -23.733  0.2486E-04  0.8932E-06
    -23.718  0.4264E-04  0.1556E-05
    -23.702  0.7223E-04  0.2678E-05
    -23.686  0.1209E-03  0.4557E-05
    -23.671  0.2000E-03  0.7664E-05
    -23.655  0.3268E-03  0.1274E-04
    -23.640  0.5276E-03  0.2094E-04
    -23.624  0.8416E-03  0.3401E-04
    -23.609  0.1326E-02  0.5462E-04
    -23.593  0.2065E-02  0.8671E-04
    -23.578  0.3177E-02  0.1361E-03
    -23.562  0.4830E-02  0.2111E-03
    -23.547  0.7253E-02  0.3238E-03
    -23.531  0.1076E-01  0.4910E-03
    -23.516  0.1578E-01  0.7362E-03
    -23.500  0.2285E-01  0.1091E-02
    -23.484  0.3271E-01  0.1599E-02
    -23.469  0.4624E-01  0.2318E-02
    -23.453  0.6460E-01  0.3322E-02
    -23.438  0.8917E-01  0.4707E-02
    -23.422  0.1216E+00  0.6596E-02
    -23.407  0.1638E+00  0.9142E-02
    -23.391  0.2181E+00  0.1253E-01
    -23.376  0.2869E+00  0.1699E-01
    -23.360  0.3728E+00  0.2278E-01
    -23.345  0.4786E+00  0.3022E-01
    -23.329  0.6071E+00  0.3965E-01
    -23.314  0.7609E+00  0.5147E-01
    -23.298  0.9423E+00  0.6611E-01
    -23.282  0.1153E+01  0.8402E-01
    -23.267  0.1394E+01  0.1057E+00
    -23.251  0.1664E+01  0.1315E+00
    -23.236  0.1964E+01  0.1620E+00
    -23.220  0.2290E+01  0.1976E+00
    -23.205  0.2637E+01  0.2386E+00
    -23.189  0.3002E+01  0.2852E+00
    -23.174  0.3375E+01  0.3377E+00
    -23.158  0.3750E+01  0.3959E+00
    -23.143  0.4116E+01  0.4599E+00
    -23.127  0.4464E+01  0.5292E+00
    -23.112  0.4783E+01  0.6035E+00
    -23.096  0.5063E+01  0.6822E+00
    -23.080  0.5296E+01  0.7645E+00
    -23.065  0.5473E+01  0.8495E+00
    -23.049  0.5588E+01  0.9363E+00
    -23.034  0.5637E+01  0.1024E+01
    -23.018  0.5619E+01  0.1111E+01
    -23.003  0.5533E+01  0.1197E+01
    -22.987  0.5384E+01  0.1281E+01
    -22.972  0.5175E+01  0.1361E+01
    -22.956  0.4915E+01  0.1438E+01
    -22.941  0.4613E+01  0.1509E+01
    -22.925  0.4277E+01  0.1576E+01
    -22.910  0.3918E+01  0.1637E+01
    -22.894  0.3546E+01  0.1692E+01
    -22.879  0.3171E+01  0.1741E+01
    -22.863  0.2801E+01  0.1784E+01
    -22.847  0.2445E+01  0.1822E+01
    -22.832  0.2109E+01  0.1855E+01
    -22.816  0.1797E+01  0.1883E+01
    -22.801  0.1513E+01  0.1907E+01
    -22.785  0.1258E+01  0.1926E+01
    -22.770  0.1034E+01  0.1942E+01
    -22.754  0.8397E+00  0.1955E+01
    -22.739  0.6737E+00  0.1966E+01
    -22.723  0.5340E+00  0.1974E+01
    -22.708  0.4182E+00  0.1981E+01
    -22.692  0.3236E+00  0.1986E+01
    -22.677  0.2474E+00  0.1989E+01
    -22.661  0.1868E+00  0.1992E+01
    -22.645  0.1394E+00  0.1995E+01
    -22.630  0.1028E+00  0.1996E+01
    -22.614  0.7489E-01  0.1997E+01
    -22.599  0.5390E-01  0.1998E+01
    -22.583  0.3833E-01  0.1999E+01
    -22.568  0.2693E-01  0.1999E+01
    -22.552  0.1870E-01  0.1999E+01
    -22.537  0.1282E-01  0.2000E+01
    -22.521  0.8689E-02  0.2000E+01
    -22.506  0.5818E-02  0.2000E+01
    -22.490  0.3848E-02  0.2000E+01
    -22.475  0.2515E-02  0.2000E+01
    -22.459  0.1624E-02  0.2000E+01
    -22.443  0.1036E-02  0.2000E+01
    -22.428  0.6534E-03  0.2000E+01
    -22.412  0.4073E-03  0.2000E+01
    -22.397  0.2514E-03  0.2000E+01
    -22.381  0.1541E-03  0.2000E+01
    -22.366  0.9499E-04  0.2000E+01
    -22.350  0.6067E-04  0.2000E+01
    -22.335  0.4319E-04  0.2000E+01
    -22.319  0.3835E-04  0.2000E+01
    -22.304  0.4501E-04  0.2000E+01
    -22.288  0.6487E-04  0.2000E+01
    -22.273  0.1028E-03  0.2000E+01
    -22.257  0.1679E-03  0.2000E+01
    -22.241  0.2749E-03  0.2000E+01
    -22.226  0.4470E-03  0.2000E+01
    -22.210  0.7194E-03  0.2000E+01
    -22.195  0.1145E-02  0.2000E+01
    -22.179  0.1801E-02  0.2000E+01
    -22.164  0.2800E-02  0.2000E+01
    -22.148  0.4303E-02  0.2000E+01
    -22.133  0.6535E-02  0.2000E+01
    -22.117  0.9809E-02  0.2000E+01
    -22.102  0.1455E-01  0.2001E+01
    -22.086  0.2134E-01  0.2001E+01
    -22.071  0.3092E-01  0.2001E+01
    -22.055  0.4430E-01  0.2002E+01
    -22.040  0.6273E-01  0.2003E+01
    -22.024  0.8779E-01  0.2005E+01
    -22.008  0.1215E+00  0.2006E+01
    -21.993  0.1661E+00  0.2009E+01
    -21.977  0.2246E+00  0.2012E+01
    -21.962  0.3001E+00  0.2017E+01
    -21.946  0.3965E+00  0.2023E+01
    -21.931  0.5178E+00  0.2031E+01
    -21.915  0.6687E+00  0.2042E+01
    -21.900  0.8536E+00  0.2055E+01
    -21.884  0.1077E+01  0.2072E+01
    -21.869  0.1344E+01  0.2093E+01
    -21.853  0.1659E+01  0.2118E+01
    -21.838  0.2024E+01  0.2150E+01
    -21.822  0.2441E+01  0.2188E+01
    -21.806  0.2912E+01  0.2233E+01
    -21.791  0.3435E+01  0.2286E+01
    -21.775  0.4006E+01  0.2349E+01
    -21.760  0.4620E+01  0.2420E+01
    -21.744  0.5270E+01  0.2502E+01
    -21.729  0.5944E+01  0.2595E+01
    -21.713  0.6631E+01  0.2698E+01
    -21.698  0.7315E+01  0.2811E+01
    -21.682  0.7981E+01  0.2935E+01
    -21.667  0.8612E+01  0.3069E+01
    -21.651  0.9191E+01  0.3212E+01
    -21.636  0.9701E+01  0.3363E+01
    -21.620  0.1013E+02  0.3520E+01
    -21.604  0.1046E+02  0.3682E+01
    -21.589  0.1068E+02  0.3848E+01
    -21.573  0.1079E+02  0.4016E+01
    -21.558  0.1078E+02  0.4183E+01
    -21.542  0.1066E+02  0.4349E+01
    -21.527  0.1042E+02  0.4511E+01
    -21.511  0.1008E+02  0.4668E+01
    -21.496  0.9651E+01  0.4818E+01
    -21.480  0.9145E+01  0.4960E+01
    -21.465  0.8579E+01  0.5093E+01
    -21.449  0.7973E+01  0.5217E+01
    -21.434  0.7346E+01  0.5331E+01
    -21.418  0.6717E+01  0.5435E+01
    -21.403  0.6106E+01  0.5530E+01
    -21.387  0.5531E+01  0.5616E+01
    -21.371  0.5008E+01  0.5694E+01
    -21.356  0.4552E+01  0.5765E+01
    -21.340  0.4175E+01  0.5829E+01
    -21.325  0.3889E+01  0.5890E+01
    -21.309  0.3700E+01  0.5947E+01
    -21.294  0.3614E+01  0.6003E+01
    -21.278  0.3635E+01  0.6060E+01
    -21.263  0.3762E+01  0.6118E+01
    -21.247  0.3994E+01  0.6180E+01
    -21.232  0.4326E+01  0.6248E+01
    -21.216  0.4750E+01  0.6321E+01
    -21.201  0.5257E+01  0.6403E+01
    -21.185  0.5834E+01  0.6494E+01
    -21.169  0.6468E+01  0.6594E+01
    -21.154  0.7142E+01  0.6705E+01
    -21.138  0.7838E+01  0.6827E+01
    -21.123  0.8539E+01  0.6960E+01
    -21.107  0.9224E+01  0.7103E+01
    -21.092  0.9878E+01  0.7256E+01
    -21.076  0.1048E+02  0.7419E+01
    -21.061  0.1103E+02  0.7591E+01
    -21.045  0.1150E+02  0.7769E+01
    -21.030  0.1189E+02  0.7954E+01
    -21.014  0.1220E+02  0.8144E+01
    -20.999  0.1243E+02  0.8337E+01
    -20.983  0.1258E+02  0.8532E+01
    -20.967  0.1268E+02  0.8729E+01
    -20.952  0.1272E+02  0.8927E+01
    -20.936  0.1273E+02  0.9125E+01
    -20.921  0.1272E+02  0.9322E+01
    -20.905  0.1271E+02  0.9520E+01
    -20.890  0.1272E+02  0.9717E+01
    -20.874  0.1276E+02  0.9916E+01
    -20.859  0.1285E+02  0.1012E+02
    -20.843  0.1299E+02  0.1032E+02
    -20.828  0.1319E+02  0.1052E+02
    -20.812  0.1345E+02  0.1073E+02
    -20.797  0.1377E+02  0.1094E+02
    -20.781  0.1414E+02  0.1116E+02
    -20.765  0.1455E+02  0.1139E+02
    -20.750  0.1499E+02  0.1162E+02
    -20.734  0.1546E+02  0.1186E+02
    -20.719  0.1593E+02  0.1211E+02
    -20.703  0.1640E+02  0.1237E+02
    -20.688  0.1685E+02  0.1263E+02
    -20.672  0.1728E+02  0.1290E+02
    -20.657  0.1768E+02  0.1317E+02
    -20.641  0.1804E+02  0.1345E+02
    -20.626  0.1836E+02  0.1374E+02
    -20.610  0.1864E+02  0.1403E+02
    -20.595  0.1888E+02  0.1432E+02
    -20.579  0.1908E+02  0.1462E+02
    -20.564  0.1924E+02  0.1491E+02
    -20.548  0.1938E+02  0.1522E+02
    -20.532  0.1948E+02  0.1552E+02
    -20.517  0.1956E+02  0.1582E+02
    -20.501  0.1961E+02  0.1613E+02
    -20.486  0.1965E+02  0.1643E+02
    -20.470  0.1966E+02  0.1674E+02
    -20.455  0.1966E+02  0.1704E+02
    -20.439  0.1964E+02  0.1735E+02
    -20.424  0.1961E+02  0.1765E+02
    -20.408  0.1956E+02  0.1796E+02
    -20.393  0.1950E+02  0.1826E+02
    -20.377  0.1942E+02  0.1856E+02
    -20.362  0.1933E+02  0.1886E+02
    -20.346  0.1923E+02  0.1916E+02
    -20.330  0.1913E+02  0.1946E+02
    -20.315  0.1902E+02  0.1975E+02
    -20.299  0.1893E+02  0.2005E+02
    -20.284  0.1884E+02  0.2034E+02
    -20.268  0.1877E+02  0.2063E+02
    -20.253  0.1872E+02  0.2092E+02
    -20.237  0.1870E+02  0.2121E+02
    -20.222  0.1871E+02  0.2150E+02
    -20.206  0.1875E+02  0.2180E+02
    -20.191  0.1883E+02  0.2209E+02
    -20.175  0.1893E+02  0.2238E+02
    -20.160  0.1907E+02  0.2268E+02
    -20.144  0.1923E+02  0.2298E+02
    -20.128  0.1940E+02  0.2328E+02
    -20.113  0.1957E+02  0.2358E+02
    -20.097  0.1975E+02  0.2389E+02
    -20.082  0.1992E+02  0.2420E+02
    -20.066  0.2006E+02  0.2451E+02
    -20.051  0.2018E+02  0.2482E+02
    -20.035  0.2027E+02  0.2514E+02
    -20.020  0.2032E+02  0.2545E+02
    -20.004  0.2034E+02  0.2577E+02
    -19.989  0.2032E+02  0.2609E+02
    -19.973  0.2028E+02  0.2640E+02
    -19.958  0.2021E+02  0.2672E+02
    -19.942  0.2014E+02  0.2703E+02
    -19.926  0.2006E+02  0.2734E+02
    -19.911  0.1999E+02  0.2765E+02
    -19.895  0.1993E+02  0.2796E+02
    -19.880  0.1990E+02  0.2827E+02
    -19.864  0.1989E+02  0.2858E+02
    -19.849  0.1992E+02  0.2889E+02
    -19.833  0.1998E+02  0.2920E+02
    -19.818  0.2008E+02  0.2951E+02
    -19.802  0.2021E+02  0.2982E+02
    -19.787  0.2035E+02  0.3014E+02
    -19.771  0.2052E+02  0.3046E+02
    -19.756  0.2069E+02  0.3078E+02
    -19.740  0.2085E+02  0.3110E+02
    -19.725  0.2101E+02  0.3143E+02
    -19.709  0.2114E+02  0.3176E+02
    -19.693  0.2124E+02  0.3209E+02
    -19.678  0.2131E+02  0.3242E+02
    -19.662  0.2134E+02  0.3275E+02
    -19.647  0.2134E+02  0.3308E+02
    -19.631  0.2129E+02  0.3341E+02
    -19.616  0.2122E+02  0.3374E+02
    -19.600  0.2111E+02  0.3407E+02
    -19.585  0.2098E+02  0.3440E+02
    -19.569  0.2084E+02  0.3472E+02
    -19.554  0.2069E+02  0.3504E+02
    -19.538  0.2054E+02  0.3536E+02
    -19.523  0.2041E+02  0.3568E+02
    -19.507  0.2029E+02  0.3599E+02
    -19.491  0.2019E+02  0.3631E+02
    -19.476  0.2011E+02  0.3662E+02
    -19.460  0.2007E+02  0.3693E+02
    -19.445  0.2005E+02  0.3724E+02
    -19.429  0.2007E+02  0.3756E+02
    -19.414  0.2010E+02  0.3787E+02
    -19.398  0.2017E+02  0.3818E+02
    -19.383  0.2024E+02  0.3850E+02
    -19.367  0.2033E+02  0.3881E+02
    -19.352  0.2042E+02  0.3913E+02
    -19.336  0.2052E+02  0.3945E+02
    -19.321  0.2060E+02  0.3977E+02
    -19.305  0.2067E+02  0.4009E+02
    -19.289  0.2072E+02  0.4041E+02
    -19.274  0.2075E+02  0.4073E+02
    -19.258  0.2075E+02  0.4106E+02
    -19.243  0.2073E+02  0.4138E+02
    -19.227  0.2068E+02  0.4170E+02
    -19.212  0.2061E+02  0.4202E+02
    -19.196  0.2052E+02  0.4234E+02
    -19.181  0.2042E+02  0.4266E+02
    -19.165  0.2030E+02  0.4297E+02
    -19.150  0.2018E+02  0.4328E+02
    -19.134  0.2005E+02  0.4360E+02
    -19.119  0.1994E+02  0.4391E+02
    -19.103  0.1983E+02  0.4421E+02
    -19.088  0.1974E+02  0.4452E+02
    -19.072  0.1967E+02  0.4483E+02
    -19.056  0.1963E+02  0.4513E+02
    -19.041  0.1961E+02  0.4544E+02
    -19.025  0.1961E+02  0.4574E+02
    -19.010  0.1965E+02  0.4605E+02
    -18.994  0.1971E+02  0.4635E+02
    -18.979  0.1980E+02  0.4666E+02
    -18.963  0.1991E+02  0.4697E+02
    -18.948  0.2004E+02  0.4728E+02
    -18.932  0.2019E+02  0.4759E+02
    -18.917  0.2036E+02  0.4791E+02
    -18.901  0.2054E+02  0.4823E+02
    -18.886  0.2072E+02  0.4855E+02
    -18.870  0.2091E+02  0.4888E+02
    -18.854  0.2111E+02  0.4920E+02
    -18.839  0.2129E+02  0.4954E+02
    -18.823  0.2148E+02  0.4987E+02
    -18.808  0.2166E+02  0.5021E+02
    -18.792  0.2182E+02  0.5054E+02
    -18.777  0.2198E+02  0.5089E+02
    -18.761  0.2212E+02  0.5123E+02
    -18.746  0.2225E+02  0.5158E+02
    -18.730  0.2237E+02  0.5192E+02
    -18.715  0.2247E+02  0.5227E+02
    -18.699  0.2256E+02  0.5262E+02
    -18.684  0.2263E+02  0.5297E+02
    -18.668  0.2270E+02  0.5333E+02
    -18.652  0.2275E+02  0.5368E+02
    -18.637  0.2280E+02  0.5404E+02
    -18.621  0.2284E+02  0.5439E+02
    -18.606  0.2287E+02  0.5475E+02
    -18.590  0.2290E+02  0.5510E+02
    -18.575  0.2293E+02  0.5546E+02
    -18.559  0.2295E+02  0.5581E+02
    -18.544  0.2297E+02  0.5617E+02
    -18.528  0.2299E+02  0.5653E+02
    -18.513  0.2300E+02  0.5689E+02
    -18.497  0.2301E+02  0.5724E+02
    -18.482  0.2301E+02  0.5760E+02
    -18.466  0.2300E+02  0.5796E+02
    -18.450  0.2298E+02  0.5831E+02
    -18.435  0.2294E+02  0.5867E+02
    -18.419  0.2290E+02  0.5903E+02
    -18.404  0.2283E+02  0.5938E+02
    -18.388  0.2275E+02  0.5974E+02
    -18.373  0.2266E+02  0.6009E+02
    -18.357  0.2255E+02  0.6044E+02
    -18.342  0.2242E+02  0.6079E+02
    -18.326  0.2229E+02  0.6113E+02
    -18.311  0.2214E+02  0.6148E+02
    -18.295  0.2199E+02  0.6182E+02
    -18.280  0.2184E+02  0.6216E+02
    -18.264  0.2169E+02  0.6249E+02
    -18.249  0.2155E+02  0.6283E+02
    -18.233  0.2142E+02  0.6316E+02
    -18.217  0.2130E+02  0.6349E+02
    -18.202  0.2120E+02  0.6382E+02
    -18.186  0.2113E+02  0.6415E+02
    -18.171  0.2108E+02  0.6448E+02
    -18.155  0.2105E+02  0.6481E+02
    -18.140  0.2105E+02  0.6513E+02
    -18.124  0.2108E+02  0.6546E+02
    -18.109  0.2113E+02  0.6579E+02
    -18.093  0.2120E+02  0.6612E+02
    -18.078  0.2129E+02  0.6645E+02
    -18.062  0.2139E+02  0.6678E+02
    -18.047  0.2150E+02  0.6711E+02
    -18.031  0.2162E+02  0.6745E+02
    -18.015  0.2174E+02  0.6779E+02
    -18.000  0.2186E+02  0.6813E+02
    -17.984  0.2196E+02  0.6847E+02
    -17.969  0.2205E+02  0.6881E+02
    -17.953  0.2212E+02  0.6916E+02
    -17.938  0.2217E+02  0.6950E+02
    -17.922  0.2219E+02  0.6984E+02
    -17.907  0.2218E+02  0.7019E+02
    -17.891  0.2215E+02  0.7053E+02
    -17.876  0.2209E+02  0.7088E+02
    -17.860  0.2200E+02  0.7122E+02
    -17.845  0.2188E+02  0.7156E+02
    -17.829  0.2174E+02  0.7190E+02
    -17.813  0.2159E+02  0.7223E+02
    -17.798  0.2142E+02  0.7256E+02
    -17.782  0.2125E+02  0.7289E+02
    -17.767  0.2108E+02  0.7322E+02
    -17.751  0.2091E+02  0.7355E+02
    -17.736  0.2075E+02  0.7387E+02
    -17.720  0.2062E+02  0.7419E+02
    -17.705  0.2051E+02  0.7451E+02
    -17.689  0.2044E+02  0.7483E+02
    -17.674  0.2039E+02  0.7514E+02
    -17.658  0.2039E+02  0.7546E+02
    -17.643  0.2043E+02  0.7578E+02
    -17.627  0.2051E+02  0.7610E+02
    -17.611  0.2063E+02  0.7642E+02
    -17.596  0.2079E+02  0.7674E+02
    -17.580  0.2098E+02  0.7707E+02
    -17.565  0.2119E+02  0.7739E+02
    -17.549  0.2143E+02  0.7773E+02
    -17.534  0.2168E+02  0.7806E+02
    -17.518  0.2193E+02  0.7840E+02
    -17.503  0.2218E+02  0.7875E+02
    -17.487  0.2242E+02  0.7910E+02
    -17.472  0.2264E+02  0.7945E+02
    -17.456  0.2285E+02  0.7980E+02
    -17.441  0.2303E+02  0.8016E+02
    -17.425  0.2319E+02  0.8052E+02
    -17.410  0.2332E+02  0.8088E+02
    -17.394  0.2343E+02  0.8125E+02
    -17.378  0.2352E+02  0.8161E+02
    -17.363  0.2359E+02  0.8198E+02
    -17.347  0.2365E+02  0.8235E+02
    -17.332  0.2369E+02  0.8272E+02
    -17.316  0.2372E+02  0.8308E+02
    -17.301  0.2374E+02  0.8345E+02
    -17.285  0.2376E+02  0.8382E+02
    -17.270  0.2377E+02  0.8419E+02
    -17.254  0.2377E+02  0.8456E+02
    -17.239  0.2377E+02  0.8493E+02
    -17.223  0.2376E+02  0.8530E+02
    -17.208  0.2375E+02  0.8567E+02
    -17.192  0.2372E+02  0.8604E+02
    -17.176  0.2367E+02  0.8641E+02
    -17.161  0.2362E+02  0.8677E+02
    -17.145  0.2354E+02  0.8714E+02
    -17.130  0.2346E+02  0.8750E+02
    -17.114  0.2335E+02  0.8787E+02
    -17.099  0.2324E+02  0.8823E+02
    -17.083  0.2311E+02  0.8859E+02
    -17.068  0.2298E+02  0.8894E+02
    -17.052  0.2284E+02  0.8930E+02
    -17.037  0.2271E+02  0.8965E+02
    -17.021  0.2258E+02  0.9000E+02
    -17.006  0.2246E+02  0.9035E+02
    -16.990  0.2235E+02  0.9070E+02
    -16.974  0.2226E+02  0.9104E+02
    -16.959  0.2219E+02  0.9139E+02
    -16.943  0.2215E+02  0.9173E+02
    -16.928  0.2213E+02  0.9208E+02
    -16.912  0.2213E+02  0.9242E+02
    -16.897  0.2216E+02  0.9276E+02
    -16.881  0.2220E+02  0.9311E+02
    -16.866  0.2227E+02  0.9345E+02
    -16.850  0.2234E+02  0.9380E+02
    -16.835  0.2242E+02  0.9415E+02
    -16.819  0.2251E+02  0.9450E+02
    -16.804  0.2260E+02  0.9485E+02
    -16.788  0.2268E+02  0.9520E+02
    -16.773  0.2275E+02  0.9556E+02
    -16.757  0.2281E+02  0.9591E+02
    -16.741  0.2286E+02  0.9627E+02
    -16.726  0.2290E+02  0.9662E+02
    -16.710  0.2292E+02  0.9698E+02
    -16.695  0.2294E+02  0.9733E+02
    -16.679  0.2294E+02  0.9769E+02
    -16.664  0.2294E+02  0.9805E+02
    -16.648  0.2294E+02  0.9840E+02
    -16.633  0.2294E+02  0.9876E+02
    -16.617  0.2295E+02  0.9912E+02
    -16.602  0.2296E+02  0.9947E+02
    -16.586  0.2299E+02  0.9983E+02
    -16.571  0.2302E+02  0.1002E+03
    -16.555  0.2306E+02  0.1005E+03
    -16.539  0.2311E+02  0.1009E+03
    -16.524  0.2317E+02  0.1013E+03
    -16.508  0.2323E+02  0.1016E+03
    -16.493  0.2329E+02  0.1020E+03
    -16.477  0.2335E+02  0.1024E+03
    -16.462  0.2341E+02  0.1027E+03
    -16.446  0.2346E+02  0.1031E+03
    -16.431  0.2350E+02  0.1034E+03
    -16.415  0.2353E+02  0.1038E+03
    -16.400  0.2355E+02  0.1042E+03
    -16.384  0.2356E+02  0.1045E+03
    -16.369  0.2356E+02  0.1049E+03
    -16.353  0.2356E+02  0.1053E+03
    -16.337  0.2354E+02  0.1056E+03
    -16.322  0.2353E+02  0.1060E+03
    -16.306  0.2351E+02  0.1064E+03
    -16.291  0.2350E+02  0.1067E+03
    -16.275  0.2349E+02  0.1071E+03
    -16.260  0.2349E+02  0.1075E+03
    -16.244  0.2349E+02  0.1078E+03
    -16.229  0.2349E+02  0.1082E+03
    -16.213  0.2350E+02  0.1086E+03
    -16.198  0.2350E+02  0.1089E+03
    -16.182  0.2350E+02  0.1093E+03
    -16.167  0.2349E+02  0.1097E+03
    -16.151  0.2347E+02  0.1100E+03
    -16.135  0.2342E+02  0.1104E+03
    -16.120  0.2335E+02  0.1107E+03
    -16.104  0.2325E+02  0.1111E+03
    -16.089  0.2313E+02  0.1115E+03
    -16.073  0.2297E+02  0.1118E+03
    -16.058  0.2278E+02  0.1122E+03
    -16.042  0.2256E+02  0.1125E+03
    -16.027  0.2231E+02  0.1129E+03
    -16.011  0.2205E+02  0.1132E+03
    -15.996  0.2176E+02  0.1136E+03
    -15.980  0.2147E+02  0.1139E+03
    -15.965  0.2117E+02  0.1142E+03
    -15.949  0.2088E+02  0.1145E+03
    -15.934  0.2060E+02  0.1149E+03
    -15.918  0.2034E+02  0.1152E+03
    -15.902  0.2010E+02  0.1155E+03
    -15.887  0.1989E+02  0.1158E+03
    -15.871  0.1970E+02  0.1161E+03
    -15.856  0.1955E+02  0.1164E+03
    -15.840  0.1943E+02  0.1167E+03
    -15.825  0.1934E+02  0.1170E+03
    -15.809  0.1928E+02  0.1173E+03
    -15.794  0.1925E+02  0.1176E+03
    -15.778  0.1924E+02  0.1179E+03
    -15.763  0.1925E+02  0.1182E+03
    -15.747  0.1928E+02  0.1185E+03
    -15.732  0.1933E+02  0.1188E+03
    -15.716  0.1938E+02  0.1191E+03
    -15.700  0.1943E+02  0.1194E+03
    -15.685  0.1949E+02  0.1197E+03
    -15.669  0.1953E+02  0.1200E+03
    -15.654  0.1957E+02  0.1203E+03
    -15.638  0.1958E+02  0.1206E+03
    -15.623  0.1957E+02  0.1209E+03
    -15.607  0.1954E+02  0.1212E+03
    -15.592  0.1948E+02  0.1215E+03
    -15.576  0.1939E+02  0.1218E+03
    -15.561  0.1926E+02  0.1221E+03
    -15.545  0.1911E+02  0.1224E+03
    -15.530  0.1893E+02  0.1227E+03
    -15.514  0.1872E+02  0.1230E+03
    -15.498  0.1850E+02  0.1233E+03
    -15.483  0.1826E+02  0.1236E+03
    -15.467  0.1801E+02  0.1239E+03
    -15.452  0.1777E+02  0.1241E+03
    -15.436  0.1753E+02  0.1244E+03
    -15.421  0.1731E+02  0.1247E+03
    -15.405  0.1711E+02  0.1250E+03
    -15.390  0.1693E+02  0.1252E+03
    -15.374  0.1678E+02  0.1255E+03
    -15.359  0.1666E+02  0.1257E+03
    -15.343  0.1657E+02  0.1260E+03
    -15.328  0.1651E+02  0.1263E+03
    -15.312  0.1649E+02  0.1265E+03
    -15.296  0.1649E+02  0.1268E+03
    -15.281  0.1653E+02  0.1270E+03
    -15.265  0.1659E+02  0.1273E+03
    -15.250  0.1668E+02  0.1275E+03
    -15.234  0.1679E+02  0.1278E+03
    -15.219  0.1692E+02  0.1281E+03
    -15.203  0.1708E+02  0.1283E+03
    -15.188  0.1725E+02  0.1286E+03
    -15.172  0.1745E+02  0.1289E+03
    -15.157  0.1766E+02  0.1291E+03
    -15.141  0.1789E+02  0.1294E+03
    -15.126  0.1813E+02  0.1297E+03
    -15.110  0.1839E+02  0.1300E+03
    -15.095  0.1865E+02  0.1303E+03
    -15.079  0.1893E+02  0.1306E+03
    -15.063  0.1921E+02  0.1309E+03
    -15.048  0.1949E+02  0.1312E+03
    -15.032  0.1977E+02  0.1315E+03
    -15.017  0.2005E+02  0.1318E+03
    -15.001  0.2031E+02  0.1321E+03
    -14.986  0.2055E+02  0.1324E+03
    -14.970  0.2078E+02  0.1327E+03
    -14.955  0.2099E+02  0.1331E+03
    -14.939  0.2117E+02  0.1334E+03
    -14.924  0.2133E+02  0.1337E+03
    -14.908  0.2147E+02  0.1341E+03
    -14.893  0.2158E+02  0.1344E+03
    -14.877  0.2166E+02  0.1347E+03
    -14.861  0.2173E+02  0.1351E+03
    -14.846  0.2177E+02  0.1354E+03
    -14.830  0.2180E+02  0.1358E+03
    -14.815  0.2181E+02  0.1361E+03
    -14.799  0.2181E+02  0.1364E+03
    -14.784  0.2180E+02  0.1368E+03
    -14.768  0.2177E+02  0.1371E+03
    -14.753  0.2175E+02  0.1374E+03
    -14.737  0.2171E+02  0.1378E+03
    -14.722  0.2167E+02  0.1381E+03
    -14.706  0.2163E+02  0.1385E+03
    -14.691  0.2158E+02  0.1388E+03
    -14.675  0.2154E+02  0.1391E+03
    -14.659  0.2150E+02  0.1395E+03
    -14.644  0.2146E+02  0.1398E+03
    -14.628  0.2143E+02  0.1401E+03
    -14.613  0.2141E+02  0.1405E+03
    -14.597  0.2140E+02  0.1408E+03
    -14.582  0.2142E+02  0.1411E+03
    -14.566  0.2146E+02  0.1415E+03
    -14.551  0.2152E+02  0.1418E+03
    -14.535  0.2162E+02  0.1421E+03
    -14.520  0.2175E+02  0.1425E+03
    -14.504  0.2190E+02  0.1428E+03
    -14.489  0.2209E+02  0.1431E+03
    -14.473  0.2230E+02  0.1435E+03
    -14.458  0.2254E+02  0.1438E+03
    -14.442  0.2278E+02  0.1442E+03
    -14.426  0.2303E+02  0.1446E+03
    -14.411  0.2328E+02  0.1449E+03
    -14.395  0.2351E+02  0.1453E+03
    -14.380  0.2372E+02  0.1457E+03
    -14.364  0.2390E+02  0.1460E+03
    -14.349  0.2404E+02  0.1464E+03
    -14.333  0.2412E+02  0.1468E+03
    -14.318  0.2416E+02  0.1471E+03
    -14.302  0.2414E+02  0.1475E+03
    -14.287  0.2407E+02  0.1479E+03
    -14.271  0.2394E+02  0.1483E+03
    -14.256  0.2377E+02  0.1486E+03
    -14.240  0.2356E+02  0.1490E+03
    -14.224  0.2331E+02  0.1494E+03
    -14.209  0.2305E+02  0.1497E+03
    -14.193  0.2277E+02  0.1501E+03
    -14.178  0.2249E+02  0.1504E+03
    -14.162  0.2222E+02  0.1508E+03
    -14.147  0.2197E+02  0.1511E+03
    -14.131  0.2175E+02  0.1515E+03
    -14.116  0.2156E+02  0.1518E+03
    -14.100  0.2140E+02  0.1521E+03
    -14.085  0.2129E+02  0.1525E+03
    -14.069  0.2122E+02  0.1528E+03
    -14.054  0.2119E+02  0.1531E+03
    -14.038  0.2120E+02  0.1534E+03
    -14.022  0.2125E+02  0.1538E+03
    -14.007  0.2132E+02  0.1541E+03
    -13.991  0.2143E+02  0.1544E+03
    -13.976  0.2156E+02  0.1548E+03
    -13.960  0.2171E+02  0.1551E+03
    -13.945  0.2187E+02  0.1554E+03
    -13.929  0.2203E+02  0.1558E+03
    -13.914  0.2220E+02  0.1561E+03
    -13.898  0.2236E+02  0.1565E+03
    -13.883  0.2251E+02  0.1568E+03
    -13.867  0.2264E+02  0.1572E+03
    -13.852  0.2277E+02  0.1575E+03
    -13.836  0.2287E+02  0.1579E+03
    -13.820  0.2295E+02  0.1582E+03
    -13.805  0.2302E+02  0.1586E+03
    -13.789  0.2306E+02  0.1590E+03
    -13.774  0.2309E+02  0.1593E+03
    -13.758  0.2310E+02  0.1597E+03
    -13.743  0.2310E+02  0.1600E+03
    -13.727  0.2309E+02  0.1604E+03
    -13.712  0.2307E+02  0.1608E+03
    -13.696  0.2304E+02  0.1611E+03
    -13.681  0.2302E+02  0.1615E+03
    -13.665  0.2299E+02  0.1618E+03
    -13.650  0.2298E+02  0.1622E+03
    -13.634  0.2297E+02  0.1625E+03
    -13.619  0.2296E+02  0.1629E+03
    -13.603  0.2297E+02  0.1633E+03
    -13.587  0.2299E+02  0.1636E+03
    -13.572  0.2302E+02  0.1640E+03
    -13.556  0.2305E+02  0.1643E+03
    -13.541  0.2309E+02  0.1647E+03
    -13.525  0.2314E+02  0.1650E+03
    -13.510  0.2319E+02  0.1654E+03
    -13.494  0.2324E+02  0.1658E+03
    -13.479  0.2329E+02  0.1661E+03
    -13.463  0.2333E+02  0.1665E+03
    -13.448  0.2336E+02  0.1669E+03
    -13.432  0.2339E+02  0.1672E+03
    -13.417  0.2340E+02  0.1676E+03
    -13.401  0.2340E+02  0.1679E+03
    -13.385  0.2339E+02  0.1683E+03
    -13.370  0.2336E+02  0.1687E+03
    -13.354  0.2332E+02  0.1690E+03
    -13.339  0.2326E+02  0.1694E+03
    -13.323  0.2319E+02  0.1698E+03
    -13.308  0.2311E+02  0.1701E+03
    -13.292  0.2302E+02  0.1705E+03
    -13.277  0.2293E+02  0.1708E+03
    -13.261  0.2283E+02  0.1712E+03
    -13.246  0.2273E+02  0.1715E+03
    -13.230  0.2263E+02  0.1719E+03
    -13.215  0.2253E+02  0.1722E+03
    -13.199  0.2244E+02  0.1726E+03
    -13.183  0.2235E+02  0.1729E+03
    -13.168  0.2227E+02  0.1733E+03
    -13.152  0.2219E+02  0.1736E+03
    -13.137  0.2212E+02  0.1740E+03
    -13.121  0.2206E+02  0.1743E+03
    -13.106  0.2200E+02  0.1747E+03
    -13.090  0.2196E+02  0.1750E+03
    -13.075  0.2192E+02  0.1753E+03
    -13.059  0.2188E+02  0.1757E+03
    -13.044  0.2186E+02  0.1760E+03
    -13.028  0.2184E+02  0.1764E+03
    -13.013  0.2183E+02  0.1767E+03
    -12.997  0.2183E+02  0.1770E+03
    -12.981  0.2185E+02  0.1774E+03
    -12.966  0.2188E+02  0.1777E+03
    -12.950  0.2192E+02  0.1781E+03
    -12.935  0.2198E+02  0.1784E+03
    -12.919  0.2206E+02  0.1787E+03
    -12.904  0.2215E+02  0.1791E+03
    -12.888  0.2227E+02  0.1794E+03
    -12.873  0.2240E+02  0.1798E+03
    -12.857  0.2255E+02  0.1801E+03
    -12.842  0.2271E+02  0.1805E+03
    -12.826  0.2289E+02  0.1808E+03
    -12.811  0.2307E+02  0.1812E+03
    -12.795  0.2327E+02  0.1816E+03
    -12.780  0.2346E+02  0.1819E+03
    -12.764  0.2366E+02  0.1823E+03
    -12.748  0.2384E+02  0.1827E+03
    -12.733  0.2402E+02  0.1830E+03
    -12.717  0.2419E+02  0.1834E+03
    -12.702  0.2433E+02  0.1838E+03
    -12.686  0.2445E+02  0.1842E+03
    -12.671  0.2455E+02  0.1845E+03
    -12.655  0.2462E+02  0.1849E+03
    -12.640  0.2466E+02  0.1853E+03
    -12.624  0.2468E+02  0.1857E+03
    -12.609  0.2467E+02  0.1861E+03
    -12.593  0.2464E+02  0.1865E+03
    -12.578  0.2459E+02  0.1868E+03
    -12.562  0.2453E+02  0.1872E+03
    -12.546  0.2446E+02  0.1876E+03
    -12.531  0.2439E+02  0.1880E+03
    -12.515  0.2431E+02  0.1884E+03
    -12.500  0.2425E+02  0.1887E+03
    -12.484  0.2419E+02  0.1891E+03
    -12.469  0.2415E+02  0.1895E+03
    -12.453  0.2412E+02  0.1899E+03
    -12.438  0.2410E+02  0.1902E+03
    -12.422  0.2409E+02  0.1906E+03
    -12.407  0.2409E+02  0.1910E+03
    -12.391  0.2409E+02  0.1914E+03
    -12.376  0.2410E+02  0.1917E+03
    -12.360  0.2409E+02  0.1921E+03
    -12.344  0.2408E+02  0.1925E+03
    -12.329  0.2406E+02  0.1929E+03
    -12.313  0.2402E+02  0.1932E+03
    -12.298  0.2395E+02  0.1936E+03
    -12.282  0.2387E+02  0.1940E+03
    -12.267  0.2376E+02  0.1943E+03
    -12.251  0.2364E+02  0.1947E+03
    -12.236  0.2349E+02  0.1951E+03
    -12.220  0.2332E+02  0.1954E+03