 139 139   0   0
  0.5038988E+02  0.2081519E-08  0.1682472E-08  0.2000000E-08  0.5000000E-15
  1.000000000000000E-004
  CAR 
 unknown system                          
      3.64775068    -24.27776338 2000     -3.50244966      1.00000000
    -24.278  0.0000E+00  0.0000E+00
    -24.264  0.0000E+00  0.0000E+00
    -24.250  0.0000E+00  0.0000E+00
    -24.236  0.0000E+00  0.0000E+00
    -24.222  0.0000E+00  0.0000E+00
    -24.208  0.0000E+00  0.0000E+00
    -24.194  0.0000E+00  0.0000E+00
    -24.180  0.0000E+00  0.0000E+00
    -24.166  0.0000E+00  0.0000E+00
    -24.152  0.0000E+00  0.0000E+00
    -24.138  0.0000E+00  0.0000E+00
    -24.124  0.0000E+00  0.0000E+00
    -24.110  0.0000E+00  0.0000E+00
    -24.096  0.0000E+00  0.0000E+00
    -24.082  0.0000E+00  0.0000E+00
    -24.068  0.0000E+00  0.0000E+00
    -24.054  0.0000E+00  0.0000E+00
    -24.040  0.0000E+00  0.0000E+00
    -24.026  0.0000E+00  0.0000E+00
    -24.012  0.0000E+00  0.0000E+00
    -23.998  0.0000E+00  0.0000E+00
    -23.984  0.0000E+00  0.0000E+00
    -23.970  0.0000E+00  0.0000E+00
    -23.956  0.0000E+00  0.0000E+00
    -23.942  0.0000E+00  0.0000E+00
    -23.929  0.0000E+00  0.0000E+00
    -23.915  0.0000E+00  0.0000E+00
    -23.901  0.0000E+00  0.0000E+00
    -23.887  0.0000E+00  0.0000E+00
    -23.873  0.0000E+00  0.0000E+00
    -23.859  0.0000E+00  0.0000E+00
    -23.845  0.0000E+00  0.0000E+00
    -23.831  0.0000E+00  0.0000E+00
    -23.817  0.0000E+00  0.0000E+00
    -23.803  0.0000E+00  0.0000E+00
    -23.789  0.0000E+00  0.0000E+00
    -23.775  0.0000E+00  0.0000E+00
    -23.761  0.0000E+00  0.0000E+00
    -23.747  0.0000E+00  0.0000E+00
    -23.733  0.0000E+00  0.0000E+00
    -23.719  0.0000E+00  0.0000E+00
    -23.705  0.0000E+00  0.0000E+00
    -23.691  0.0000E+00  0.0000E+00
    -23.677  0.0000E+00  0.0000E+00
    -23.663  0.0000E+00  0.0000E+00
    -23.649  0.0000E+00  0.0000E+00
    -23.635  0.0000E+00  0.0000E+00
    -23.621  0.0000E+00  0.0000E+00
    -23.607  0.0000E+00  0.0000E+00
    -23.593  0.0000E+00  0.0000E+00
    -23.579  0.0000E+00  0.0000E+00
    -23.565  0.0000E+00  0.0000E+00
    -23.551  0.0000E+00  0.0000E+00
    -23.537  0.0000E+00  0.0000E+00
    -23.523  0.0000E+00  0.0000E+00
    -23.509  0.0000E+00  0.0000E+00
    -23.495  0.0000E+00  0.0000E+00
    -23.481  0.0000E+00  0.0000E+00
    -23.468  0.0000E+00  0.0000E+00
    -23.454  0.7947E-14  0.1110E-15
    -23.440  0.7947E-14  0.2220E-15
    -23.426  0.1589E-13  0.4441E-15
    -23.412  0.3709E-13  0.9622E-15
    -23.398  0.8301E-13  0.2122E-14
    -23.384  0.1854E-12  0.4712E-14
    -23.370  0.3974E-12  0.1026E-13
    -23.356  0.8565E-12  0.2223E-13
    -23.342  0.1816E-11  0.4760E-13
    -23.328  0.3824E-11  0.1010E-12
    -23.314  0.7972E-11  0.2124E-12
    -23.300  0.1645E-10  0.4422E-12
    -23.286  0.3362E-10  0.9118E-12
    -23.272  0.6804E-10  0.1862E-11
    -23.258  0.1364E-09  0.3767E-11
    -23.244  0.2707E-09  0.7548E-11
    -23.230  0.5320E-09  0.1498E-10
    -23.216  0.1035E-08  0.2945E-10
    -23.202  0.1996E-08  0.5733E-10
    -23.188  0.3810E-08  0.1106E-09
    -23.174  0.7202E-08  0.2112E-09
    -23.160  0.1348E-07  0.3995E-09
    -23.146  0.2500E-07  0.7487E-09
    -23.132  0.4589E-07  0.1390E-08
    -23.118  0.8343E-07  0.2555E-08
    -23.104  0.1502E-06  0.4654E-08
    -23.090  0.2678E-06  0.8395E-08
    -23.076  0.4729E-06  0.1500E-07
    -23.062  0.8268E-06  0.2655E-07
    -23.048  0.1432E-05  0.4655E-07
    -23.034  0.2455E-05  0.8085E-07
    -23.020  0.4169E-05  0.1391E-06
    -23.007  0.7011E-05  0.2370E-06
    -22.993  0.1168E-04  0.4001E-06
    -22.979  0.1926E-04  0.6691E-06
    -22.965  0.3145E-04  0.1108E-05
    -22.951  0.5086E-04  0.1819E-05
    -22.937  0.8146E-04  0.2957E-05
    -22.923  0.1292E-03  0.4762E-05
    -22.909  0.2030E-03  0.7597E-05
    -22.895  0.3157E-03  0.1201E-04
    -22.881  0.4863E-03  0.1880E-04
    -22.867  0.7418E-03  0.2916E-04
    -22.853  0.1121E-02  0.4482E-04
    -22.839  0.1676E-02  0.6824E-04
    -22.825  0.2484E-02  0.1029E-03
    -22.811  0.3644E-02  0.1538E-03
    -22.797  0.5294E-02  0.2278E-03
    -22.783  0.7618E-02  0.3342E-03
    -22.769  0.1085E-01  0.4858E-03
    -22.755  0.1532E-01  0.6998E-03
    -22.741  0.2140E-01  0.9988E-03
    -22.727  0.2962E-01  0.1412E-02
    -22.713  0.4059E-01  0.1979E-02
    -22.699  0.5508E-01  0.2749E-02
    -22.685  0.7403E-01  0.3783E-02
    -22.671  0.9853E-01  0.5159E-02
    -22.657  0.1299E+00  0.6974E-02
    -22.643  0.1695E+00  0.9342E-02
    -22.629  0.2191E+00  0.1240E-01
    -22.615  0.2805E+00  0.1632E-01
    -22.601  0.3557E+00  0.2129E-01
    -22.587  0.4466E+00  0.2753E-01
    -22.573  0.5554E+00  0.3529E-01
    -22.559  0.6840E+00  0.4484E-01
    -22.546  0.8343E+00  0.5650E-01
    -22.532  0.1008E+01  0.7058E-01
    -22.518  0.1206E+01  0.8742E-01
    -22.504  0.1429E+01  0.1074E+00
    -22.490  0.1678E+01  0.1308E+00
    -22.476  0.1951E+01  0.1581E+00
    -22.462  0.2247E+01  0.1895E+00
    -22.448  0.2564E+01  0.2253E+00
    -22.434  0.2899E+01  0.2658E+00
    -22.420  0.3248E+01  0.3112E+00
    -22.406  0.3607E+01  0.3616E+00
    -22.392  0.3969E+01  0.4170E+00
    -22.378  0.4330E+01  0.4775E+00
    -22.364  0.4684E+01  0.5429E+00
    -22.350  0.5026E+01  0.6131E+00
    -22.336  0.5350E+01  0.6879E+00
    -22.322  0.5653E+01  0.7669E+00
    -22.308  0.5932E+01  0.8497E+00
    -22.294  0.6184E+01  0.9361E+00
    -22.280  0.6409E+01  0.1026E+01
    -22.266  0.6609E+01  0.1118E+01
    -22.252  0.6786E+01  0.1213E+01
    -22.238  0.6945E+01  0.1310E+01
    -22.224  0.7090E+01  0.1409E+01
    -22.210  0.7229E+01  0.1510E+01
    -22.196  0.7369E+01  0.1613E+01
    -22.182  0.7517E+01  0.1718E+01
    -22.168  0.7681E+01  0.1825E+01
    -22.154  0.7869E+01  0.1935E+01
    -22.140  0.8086E+01  0.2048E+01
    -22.126  0.8339E+01  0.2164E+01
    -22.112  0.8630E+01  0.2285E+01
    -22.098  0.8962E+01  0.2410E+01
    -22.085  0.9336E+01  0.2541E+01
    -22.071  0.9751E+01  0.2677E+01
    -22.057  0.1020E+02  0.2819E+01
    -22.043  0.1069E+02  0.2969E+01
    -22.029  0.1120E+02  0.3125E+01
    -22.015  0.1173E+02  0.3289E+01
    -22.001  0.1228E+02  0.3461E+01
    -21.987  0.1283E+02  0.3640E+01
    -21.973  0.1339E+02  0.3827E+01
    -21.959  0.1393E+02  0.4022E+01
    -21.945  0.1445E+02  0.4223E+01
    -21.931  0.1496E+02  0.4432E+01
    -21.917  0.1543E+02  0.4648E+01
    -21.903  0.1588E+02  0.4870E+01
    -21.889  0.1629E+02  0.5097E+01
    -21.875  0.1667E+02  0.5330E+01
    -21.861  0.1701E+02  0.5568E+01
    -21.847  0.1733E+02  0.5810E+01
    -21.833  0.1761E+02  0.6056E+01
    -21.819  0.1787E+02  0.6306E+01
    -21.805  0.1811E+02  0.6559E+01
    -21.791  0.1834E+02  0.6815E+01
    -21.777  0.1855E+02  0.7074E+01
    -21.763  0.1875E+02  0.7336E+01
    -21.749  0.1894E+02  0.7600E+01
    -21.735  0.1914E+02  0.7868E+01
    -21.721  0.1933E+02  0.8138E+01
    -21.707  0.1952E+02  0.8410E+01
    -21.693  0.1970E+02  0.8686E+01
    -21.679  0.1988E+02  0.8963E+01
    -21.665  0.2004E+02  0.9243E+01
    -21.651  0.2019E+02  0.9525E+01
    -21.637  0.2032E+02  0.9809E+01
    -21.624  0.2043E+02  0.1009E+02
    -21.610  0.2050E+02  0.1038E+02
    -21.596  0.2055E+02  0.1067E+02
    -21.582  0.2055E+02  0.1096E+02
    -21.568  0.2052E+02  0.1124E+02
    -21.554  0.2045E+02  0.1153E+02
    -21.540  0.2035E+02  0.1181E+02
    -21.526  0.2021E+02  0.1209E+02
    -21.512  0.2004E+02  0.1237E+02
    -21.498  0.1985E+02  0.1265E+02
    -21.484  0.1964E+02  0.1293E+02
    -21.470  0.1942E+02  0.1320E+02
    -21.456  0.1919E+02  0.1346E+02
    -21.442  0.1898E+02  0.1373E+02
    -21.428  0.1877E+02  0.1399E+02
    -21.414  0.1859E+02  0.1425E+02
    -21.400  0.1843E+02  0.1451E+02
    -21.386  0.1830E+02  0.1476E+02
    -21.372  0.1820E+02  0.1502E+02
    -21.358  0.1814E+02  0.1527E+02
    -21.344  0.1812E+02  0.1553E+02
    -21.330  0.1814E+02  0.1578E+02
    -21.316  0.1819E+02  0.1603E+02
    -21.302  0.1828E+02  0.1629E+02
    -21.288  0.1841E+02  0.1655E+02
    -21.274  0.1856E+02  0.1680E+02
    -21.260  0.1875E+02  0.1707E+02
    -21.246  0.1895E+02  0.1733E+02
    -21.232  0.1918E+02  0.1760E+02
    -21.218  0.1941E+02  0.1787E+02
    -21.204  0.1966E+02  0.1815E+02
    -21.190  0.1991E+02  0.1842E+02
    -21.176  0.2016E+02  0.1871E+02
    -21.163  0.2040E+02  0.1899E+02
    -21.149  0.2062E+02  0.1928E+02
    -21.135  0.2083E+02  0.1957E+02
    -21.121  0.2102E+02  0.1986E+02
    -21.107  0.2119E+02  0.2016E+02
    -21.093  0.2132E+02  0.2046E+02
    -21.079  0.2142E+02  0.2076E+02
    -21.065  0.2149E+02  0.2106E+02
    -21.051  0.2153E+02  0.2136E+02
    -21.037  0.2153E+02  0.2166E+02
    -21.023  0.2150E+02  0.2196E+02
    -21.009  0.2144E+02  0.2226E+02
    -20.995  0.2136E+02  0.2256E+02
    -20.981  0.2125E+02  0.2285E+02
    -20.967  0.2113E+02  0.2315E+02
    -20.953  0.2101E+02  0.2344E+02
    -20.939  0.2088E+02  0.2373E+02
    -20.925  0.2075E+02  0.2402E+02
    -20.911  0.2065E+02  0.2431E+02
    -20.897  0.2056E+02  0.2460E+02
    -20.883  0.2051E+02  0.2489E+02
    -20.869  0.2048E+02  0.2517E+02
    -20.855  0.2050E+02  0.2546E+02
    -20.841  0.2057E+02  0.2575E+02
    -20.827  0.2068E+02  0.2603E+02
    -20.813  0.2083E+02  0.2633E+02
    -20.799  0.2103E+02  0.2662E+02
    -20.785  0.2127E+02  0.2692E+02
    -20.771  0.2154E+02  0.2722E+02
    -20.757  0.2184E+02  0.2752E+02
    -20.743  0.2216E+02  0.2783E+02
    -20.729  0.2249E+02  0.2815E+02
    -20.715  0.2282E+02  0.2846E+02
    -20.702  0.2313E+02  0.2879E+02
    -20.688  0.2343E+02  0.2912E+02
    -20.674  0.2369E+02  0.2945E+02
    -20.660  0.2392E+02  0.2978E+02
    -20.646  0.2410E+02  0.3012E+02
    -20.632  0.2422E+02  0.3046E+02
    -20.618  0.2430E+02  0.3079E+02
    -20.604  0.2431E+02  0.3113E+02
    -20.590  0.2427E+02  0.3147E+02
    -20.576  0.2417E+02  0.3181E+02
    -20.562  0.2402E+02  0.3215E+02
    -20.548  0.2382E+02  0.3248E+02
    -20.534  0.2359E+02  0.3281E+02
    -20.520  0.2333E+02  0.3313E+02
    -20.506  0.2304E+02  0.3346E+02
    -20.492  0.2273E+02  0.3377E+02
    -20.478  0.2242E+02  0.3409E+02
    -20.464  0.2211E+02  0.3440E+02
    -20.450  0.2181E+02  0.3470E+02
    -20.436  0.2152E+02  0.3500E+02
    -20.422  0.2124E+02  0.3530E+02
    -20.408  0.2098E+02  0.3559E+02
    -20.394  0.2075E+02  0.3588E+02
    -20.380  0.2054E+02  0.3617E+02
    -20.366  0.2036E+02  0.3645E+02
    -20.352  0.2020E+02  0.3673E+02
    -20.338  0.2006E+02  0.3702E+02
    -20.324  0.1994E+02  0.3729E+02
    -20.310  0.1985E+02  0.3757E+02
    -20.296  0.1976E+02  0.3785E+02
    -20.282  0.1969E+02  0.3812E+02
    -20.268  0.1964E+02  0.3840E+02
    -20.254  0.1959E+02  0.3867E+02
    -20.241  0.1954E+02  0.3894E+02
    -20.227  0.1951E+02  0.3922E+02
    -20.213  0.1948E+02  0.3949E+02
    -20.199  0.1944E+02  0.3976E+02
    -20.185  0.1942E+02  0.4003E+02
    -20.171  0.1939E+02  0.4030E+02
    -20.157  0.1936E+02  0.4057E+02
    -20.143  0.1933E+02  0.4084E+02
    -20.129  0.1929E+02  0.4111E+02
    -20.115  0.1926E+02  0.4138E+02
    -20.101  0.1923E+02  0.4165E+02
    -20.087  0.1919E+02  0.4192E+02
    -20.073  0.1915E+02  0.4218E+02
    -20.059  0.1911E+02  0.4245E+02
    -20.045  0.1907E+02  0.4272E+02
    -20.031  0.1902E+02  0.4298E+02
    -20.017  0.1898E+02  0.4325E+02
    -20.003  0.1893E+02  0.4351E+02
    -19.989  0.1888E+02  0.4378E+02
    -19.975  0.1883E+02  0.4404E+02
    -19.961  0.1878E+02  0.4430E+02
    -19.947  0.1873E+02  0.4456E+02
    -19.933  0.1868E+02  0.4482E+02
    -19.919  0.1863E+02  0.4509E+02
    -19.905  0.1858E+02  0.4534E+02
    -19.891  0.1854E+02  0.4560E+02
    -19.877  0.1849E+02  0.4586E+02
    -19.863  0.1845E+02  0.4612E+02
    -19.849  0.1841E+02  0.4638E+02
    -19.835  0.1838E+02  0.4663E+02
    -19.821  0.1835E+02  0.4689E+02
    -19.807  0.1833E+02  0.4715E+02
    -19.793  0.1831E+02  0.4740E+02
    -19.780  0.1830E+02  0.4766E+02
    -19.766  0.1829E+02  0.4791E+02
    -19.752  0.1829E+02  0.4817E+02
    -19.738  0.1831E+02  0.4842E+02
    -19.724  0.1833E+02  0.4868E+02
    -19.710  0.1836E+02  0.4894E+02
    -19.696  0.1840E+02  0.4919E+02
    -19.682  0.1846E+02  0.4945E+02
    -19.668  0.1853E+02  0.4971E+02
    -19.654  0.1862E+02  0.4997E+02
    -19.640  0.1873E+02  0.5023E+02
    -19.626  0.1886E+02  0.5050E+02
    -19.612  0.1901E+02  0.5076E+02
    -19.598  0.1918E+02  0.5103E+02
    -19.584  0.1938E+02  0.5130E+02
    -19.570  0.1960E+02  0.5157E+02
    -19.556  0.1984E+02  0.5185E+02
    -19.542  0.2011E+02  0.5213E+02
    -19.528  0.2040E+02  0.5242E+02
    -19.514  0.2070E+02  0.5271E+02
    -19.500  0.2103E+02  0.5300E+02
    -19.486  0.2136E+02  0.5330E+02
    -19.472  0.2170E+02  0.5360E+02
    -19.458  0.2205E+02  0.5391E+02
    -19.444  0.2239E+02  0.5422E+02
    -19.430  0.2273E+02  0.5454E+02
    -19.416  0.2305E+02  0.5486E+02
    -19.402  0.2337E+02  0.5519E+02
    -19.388  0.2366E+02  0.5552E+02
    -19.374  0.2393E+02  0.5585E+02
    -19.360  0.2418E+02  0.5619E+02
    -19.346  0.2440E+02  0.5653E+02
    -19.332  0.2460E+02  0.5688E+02
    -19.319  0.2477E+02  0.5722E+02
    -19.305  0.2491E+02  0.5757E+02
    -19.291  0.2504E+02  0.5792E+02
    -19.277  0.2514E+02  0.5827E+02
    -19.263  0.2522E+02  0.5862E+02
    -19.249  0.2529E+02  0.5898E+02
    -19.235  0.2534E+02  0.5933E+02
    -19.221  0.2538E+02  0.5968E+02
    -19.207  0.2540E+02  0.6004E+02
    -19.193  0.2542E+02  0.6039E+02
    -19.179  0.2543E+02  0.6075E+02
    -19.165  0.2543E+02  0.6111E+02
    -19.151  0.2543E+02  0.6146E+02
    -19.137  0.2541E+02  0.6182E+02
    -19.123  0.2540E+02  0.6217E+02
    -19.109  0.2537E+02  0.6252E+02
    -19.095  0.2534E+02  0.6288E+02
    -19.081  0.2530E+02  0.6323E+02
    -19.067  0.2525E+02  0.6358E+02
    -19.053  0.2519E+02  0.6394E+02
    -19.039  0.2513E+02  0.6429E+02
    -19.025  0.2505E+02  0.6464E+02
    -19.011  0.2496E+02  0.6499E+02
    -18.997  0.2487E+02  0.6533E+02
    -18.983  0.2476E+02  0.6568E+02
    -18.969  0.2465E+02  0.6602E+02
    -18.955  0.2452E+02  0.6637E+02
    -18.941  0.2439E+02  0.6671E+02
    -18.927  0.2424E+02  0.6705E+02
    -18.913  0.2410E+02  0.6738E+02
    -18.899  0.2394E+02  0.6772E+02
    -18.885  0.2378E+02  0.6805E+02
    -18.871  0.2362E+02  0.6838E+02
    -18.858  0.2345E+02  0.6871E+02
    -18.844  0.2328E+02  0.6903E+02
    -18.830  0.2311E+02  0.6935E+02
    -18.816  0.2294E+02  0.6968E+02
    -18.802  0.2277E+02  0.6999E+02
    -18.788  0.2261E+02  0.7031E+02
    -18.774  0.2244E+02  0.7062E+02
    -18.760  0.2228E+02  0.7093E+02
    -18.746  0.2213E+02  0.7124E+02
    -18.732  0.2198E+02  0.7155E+02
    -18.718  0.2184E+02  0.7186E+02
    -18.704  0.2170E+02  0.7216E+02
    -18.690  0.2158E+02  0.7246E+02
    -18.676  0.2147E+02  0.7276E+02
    -18.662  0.2137E+02  0.7306E+02
    -18.648  0.2128E+02  0.7336E+02
    -18.634  0.2121E+02  0.7365E+02
    -18.620  0.2115E+02  0.7395E+02
    -18.606  0.2110E+02  0.7424E+02
    -18.592  0.2107E+02  0.7454E+02
    -18.578  0.2105E+02  0.7483E+02
    -18.564  0.2104E+02  0.7512E+02
    -18.550  0.2104E+02  0.7542E+02
    -18.536  0.2104E+02  0.7571E+02
    -18.522  0.2106E+02  0.7601E+02
    -18.508  0.2107E+02  0.7630E+02
    -18.494  0.2110E+02  0.7660E+02
    -18.480  0.2112E+02  0.7689E+02
    -18.466  0.2114E+02  0.7719E+02
    -18.452  0.2116E+02  0.7748E+02
    -18.438  0.2119E+02  0.7778E+02
    -18.424  0.2122E+02  0.7807E+02
    -18.410  0.2125E+02  0.7837E+02
    -18.397  0.2128E+02  0.7867E+02
    -18.383  0.2133E+02  0.7897E+02
    -18.369  0.2138E+02  0.7926E+02
    -18.355  0.2145E+02  0.7956E+02
    -18.341  0.2154E+02  0.7987E+02
    -18.327  0.2165E+02  0.8017E+02
    -18.313  0.2178E+02  0.8047E+02
    -18.299  0.2194E+02  0.8078E+02
    -18.285  0.2212E+02  0.8109E+02
    -18.271  0.2233E+02  0.8140E+02
    -18.257  0.2255E+02  0.8171E+02
    -18.243  0.2280E+02  0.8203E+02
    -18.229  0.2305E+02  0.8235E+02
    -18.215  0.2332E+02  0.8268E+02
    -18.201  0.2359E+02  0.8301E+02
    -18.187  0.2384E+02  0.8334E+02
    -18.173  0.2409E+02  0.8368E+02
    -18.159  0.2431E+02  0.8402E+02
    -18.145  0.2450E+02  0.8436E+02
    -18.131  0.2466E+02  0.8471E+02
    -18.117  0.2478E+02  0.8505E+02
    -18.103  0.2485E+02  0.8540E+02
    -18.089  0.2487E+02  0.8575E+02
    -18.075  0.2485E+02  0.8609E+02
    -18.061  0.2477E+02  0.8644E+02
    -18.047  0.2465E+02  0.8678E+02
    -18.033  0.2448E+02  0.8713E+02
    -18.019  0.2427E+02  0.8747E+02
    -18.005  0.2402E+02  0.8780E+02
    -17.991  0.2375E+02  0.8813E+02
    -17.977  0.2345E+02  0.8846E+02
    -17.963  0.2313E+02  0.8878E+02
    -17.949  0.2280E+02  0.8910E+02
    -17.936  0.2247E+02  0.8942E+02
    -17.922  0.2215E+02  0.8973E+02
    -17.908  0.2183E+02  0.9003E+02
    -17.894  0.2152E+02  0.9033E+02
    -17.880  0.2124E+02  0.9063E+02
    -17.866  0.2098E+02  0.9092E+02
    -17.852  0.2074E+02  0.9121E+02
    -17.838  0.2054E+02  0.9150E+02
    -17.824  0.2038E+02  0.9178E+02
    -17.810  0.2026E+02  0.9207E+02
    -17.796  0.2017E+02  0.9235E+02
    -17.782  0.2013E+02  0.9263E+02
    -17.768  0.2013E+02  0.9291E+02
    -17.754  0.2017E+02  0.9319E+02
    -17.740  0.2025E+02  0.9347E+02
    -17.726  0.2037E+02  0.9376E+02
    -17.712  0.2053E+02  0.9405E+02
    -17.698  0.2072E+02  0.9433E+02
    -17.684  0.2094E+02  0.9463E+02
    -17.670  0.2118E+02  0.9492E+02
    -17.656  0.2144E+02  0.9522E+02
    -17.642  0.2172E+02  0.9553E+02
    -17.628  0.2200E+02  0.9583E+02
    -17.614  0.2229E+02  0.9614E+02
    -17.600  0.2257E+02  0.9646E+02
    -17.586  0.2285E+02  0.9678E+02
    -17.572  0.2311E+02  0.9710E+02
    -17.558  0.2336E+02  0.9743E+02
    -17.544  0.2359E+02  0.9776E+02
    -17.530  0.2380E+02  0.9809E+02
    -17.516  0.2398E+02  0.9843E+02
    -17.502  0.2414E+02  0.9876E+02
    -17.488  0.2427E+02  0.9910E+02
    -17.474  0.2439E+02  0.9944E+02
    -17.461  0.2448E+02  0.9978E+02
    -17.447  0.2455E+02  0.1001E+03
    -17.433  0.2460E+02  0.1005E+03
    -17.419  0.2464E+02  0.1008E+03
    -17.405  0.2467E+02  0.1012E+03
    -17.391  0.2469E+02  0.1015E+03
    -17.377  0.2471E+02  0.1018E+03
    -17.363  0.2473E+02  0.1022E+03
    -17.349  0.2475E+02  0.1025E+03
    -17.335  0.2477E+02  0.1029E+03
    -17.321  0.2479E+02  0.1032E+03
    -17.307  0.2481E+02  0.1036E+03
    -17.293  0.2484E+02  0.1039E+03
    -17.279  0.2487E+02  0.1043E+03
    -17.265  0.2490E+02  0.1046E+03
    -17.251  0.2494E+02  0.1050E+03
    -17.237  0.2497E+02  0.1053E+03
    -17.223  0.2500E+02  0.1057E+03
    -17.209  0.2504E+02  0.1060E+03
    -17.195  0.2507E+02  0.1064E+03
    -17.181  0.2510E+02  0.1067E+03
    -17.167  0.2513E+02  0.1071E+03
    -17.153  0.2515E+02  0.1074E+03
    -17.139  0.2518E+02  0.1078E+03
    -17.125  0.2520E+02  0.1081E+03
    -17.111  0.2522E+02  0.1085E+03
    -17.097  0.2524E+02  0.1088E+03
    -17.083  0.2527E+02  0.1092E+03
    -17.069  0.2529E+02  0.1095E+03
    -17.055  0.2531E+02  0.1099E+03
    -17.041  0.2532E+02  0.1102E+03
    -17.027  0.2534E+02  0.1106E+03
    -17.013  0.2535E+02  0.1110E+03
    -17.000  0.2535E+02  0.1113E+03
    -16.986  0.2533E+02  0.1117E+03
    -16.972  0.2531E+02  0.1120E+03
    -16.958  0.2527E+02  0.1124E+03
    -16.944  0.2521E+02  0.1127E+03
    -16.930  0.2514E+02  0.1131E+03
    -16.916  0.2504E+02  0.1134E+03
    -16.902  0.2492E+02  0.1138E+03
    -16.888  0.2478E+02  0.1141E+03
    -16.874  0.2461E+02  0.1145E+03
    -16.860  0.2443E+02  0.1148E+03
    -16.846  0.2423E+02  0.1151E+03
    -16.832  0.2402E+02  0.1155E+03
    -16.818  0.2380E+02  0.1158E+03
    -16.804  0.2357E+02  0.1161E+03
    -16.790  0.2334E+02  0.1165E+03
    -16.776  0.2311E+02  0.1168E+03
    -16.762  0.2289E+02  0.1171E+03
    -16.748  0.2269E+02  0.1174E+03
    -16.734  0.2250E+02  0.1177E+03
    -16.720  0.2234E+02  0.1180E+03
    -16.706  0.2220E+02  0.1184E+03
    -16.692  0.2209E+02  0.1187E+03
    -16.678  0.2201E+02  0.1190E+03
    -16.664  0.2196E+02  0.1193E+03
    -16.650  0.2195E+02  0.1196E+03
    -16.636  0.2196E+02  0.1199E+03
    -16.622  0.2201E+02  0.1202E+03
    -16.608  0.2208E+02  0.1205E+03
    -16.594  0.2217E+02  0.1208E+03
    -16.580  0.2228E+02  0.1211E+03
    -16.566  0.2240E+02  0.1214E+03
    -16.552  0.2253E+02  0.1218E+03
    -16.539  0.2266E+02  0.1221E+03
    -16.525  0.2278E+02  0.1224E+03
    -16.511  0.2290E+02  0.1227E+03
    -16.497  0.2299E+02  0.1230E+03
    -16.483  0.2307E+02  0.1234E+03
    -16.469  0.2313E+02  0.1237E+03
    -16.455  0.2316E+02  0.1240E+03
    -16.441  0.2316E+02  0.1243E+03
    -16.427  0.2314E+02  0.1246E+03
    -16.413  0.2308E+02  0.1250E+03
    -16.399  0.2301E+02  0.1253E+03
    -16.385  0.2291E+02  0.1256E+03
    -16.371  0.2280E+02  0.1259E+03
    -16.357  0.2267E+02  0.1262E+03
    -16.343  0.2253E+02  0.1266E+03
    -16.329  0.2240E+02  0.1269E+03
    -16.315  0.2226E+02  0.1272E+03
    -16.301  0.2213E+02  0.1275E+03
    -16.287  0.2201E+02  0.1278E+03
    -16.273  0.2190E+02  0.1281E+03
    -16.259  0.2180E+02  0.1284E+03
    -16.245  0.2173E+02  0.1287E+03
    -16.231  0.2167E+02  0.1290E+03
    -16.217  0.2163E+02  0.1293E+03
    -16.203  0.2160E+02  0.1296E+03
    -16.189  0.2160E+02  0.1299E+03
    -16.175  0.2161E+02  0.1302E+03
    -16.161  0.2163E+02  0.1305E+03
    -16.147  0.2167E+02  0.1308E+03
    -16.133  0.2173E+02  0.1311E+03
    -16.119  0.2179E+02  0.1314E+03
    -16.105  0.2186E+02  0.1317E+03
    -16.091  0.2195E+02  0.1321E+03
    -16.078  0.2204E+02  0.1324E+03
    -16.064  0.2214E+02  0.1327E+03
    -16.050  0.2225E+02  0.1330E+03
    -16.036  0.2236E+02  0.1333E+03
    -16.022  0.2247E+02  0.1336E+03
    -16.008  0.2258E+02  0.1339E+03
    -15.994  0.2269E+02  0.1342E+03
    -15.980  0.2280E+02  0.1346E+03
    -15.966  0.2289E+02  0.1349E+03
    -15.952  0.2298E+02  0.1352E+03
    -15.938  0.2305E+02  0.1355E+03
    -15.924  0.2310E+02  0.1358E+03
    -15.910  0.2314E+02  0.1362E+03
    -15.896  0.2315E+02  0.1365E+03
    -15.882  0.2314E+02  0.1368E+03
    -15.868  0.2310E+02  0.1371E+03
    -15.854  0.2304E+02  0.1375E+03
    -15.840  0.2296E+02  0.1378E+03
    -15.826  0.2285E+02  0.1381E+03
    -15.812  0.2273E+02  0.1384E+03
    -15.798  0.2258E+02  0.1387E+03
    -15.784  0.2242E+02  0.1390E+03
    -15.770  0.2225E+02  0.1394E+03
    -15.756  0.2206E+02  0.1397E+03
    -15.742  0.2188E+02  0.1400E+03
    -15.728  0.2168E+02  0.1403E+03
    -15.714  0.2149E+02  0.1406E+03
    -15.700  0.2130E+02  0.1409E+03
    -15.686  0.2111E+02  0.1412E+03
    -15.672  0.2093E+02  0.1415E+03
    -15.658  0.2076E+02  0.1417E+03
    -15.644  0.2060E+02  0.1420E+03
    -15.630  0.2045E+02  0.1423E+03
    -15.617  0.2032E+02  0.1426E+03
    -15.603  0.2019E+02  0.1429E+03
    -15.589  0.2009E+02  0.1432E+03
    -15.575  0.2000E+02  0.1434E+03
    -15.561  0.1993E+02  0.1437E+03
    -15.547  0.1988E+02  0.1440E+03
    -15.533  0.1984E+02  0.1443E+03
    -15.519  0.1983E+02  0.1446E+03
    -15.505  0.1983E+02  0.1448E+03
    -15.491  0.1985E+02  0.1451E+03
    -15.477  0.1988E+02  0.1454E+03
    -15.463  0.1994E+02  0.1457E+03
    -15.449  0.2001E+02  0.1459E+03
    -15.435  0.2010E+02  0.1462E+03
    -15.421  0.2020E+02  0.1465E+03
    -15.407  0.2031E+02  0.1468E+03
    -15.393  0.2044E+02  0.1471E+03
    -15.379  0.2059E+02  0.1474E+03
    -15.365  0.2074E+02  0.1477E+03
    -15.351  0.2091E+02  0.1479E+03
    -15.337  0.2108E+02  0.1482E+03
    -15.323  0.2126E+02  0.1485E+03
    -15.309  0.2145E+02  0.1488E+03
    -15.295  0.2164E+02  0.1491E+03
    -15.281  0.2183E+02  0.1494E+03
    -15.267  0.2202E+02  0.1498E+03
    -15.253  0.2220E+02  0.1501E+03
    -15.239  0.2237E+02  0.1504E+03
    -15.225  0.2254E+02  0.1507E+03
    -15.211  0.2269E+02  0.1510E+03
    -15.197  0.2283E+02  0.1513E+03
    -15.183  0.2295E+02  0.1516E+03
    -15.169  0.2305E+02  0.1520E+03
    -15.156  0.2313E+02  0.1523E+03
    -15.142  0.2319E+02  0.1526E+03
    -15.128  0.2324E+02  0.1529E+03
    -15.114  0.2326E+02  0.1533E+03
    -15.100  0.2327E+02  0.1536E+03
    -15.086  0.2327E+02  0.1539E+03
    -15.072  0.2325E+02  0.1542E+03
    -15.058  0.2322E+02  0.1546E+03
    -15.044  0.2319E+02  0.1549E+03
    -15.030  0.2314E+02  0.1552E+03
    -15.016  0.2310E+02  0.1555E+03
    -15.002  0.2306E+02  0.1559E+03
    -14.988  0.2302E+02  0.1562E+03
    -14.974  0.2299E+02  0.1565E+03
    -14.960  0.2296E+02  0.1568E+03
    -14.946  0.2294E+02  0.1571E+03
    -14.932  0.2293E+02  0.1575E+03
    -14.918  0.2292E+02  0.1578E+03
    -14.904  0.2293E+02  0.1581E+03
    -14.890  0.2295E+02  0.1584E+03
    -14.876  0.2298E+02  0.1587E+03
    -14.862  0.2301E+02  0.1591E+03
    -14.848  0.2305E+02  0.1594E+03
    -14.834  0.2310E+02  0.1597E+03
    -14.820  0.2315E+02  0.1600E+03
    -14.806  0.2320E+02  0.1604E+03
    -14.792  0.2325E+02  0.1607E+03
    -14.778  0.2330E+02  0.1610E+03
    -14.764  0.2334E+02  0.1613E+03
    -14.750  0.2338E+02  0.1617E+03
    -14.736  0.2342E+02  0.1620E+03
    -14.722  0.2345E+02  0.1623E+03
    -14.708  0.2347E+02  0.1626E+03
    -14.695  0.2349E+02  0.1630E+03
    -14.681  0.2350E+02  0.1633E+03
    -14.667  0.2351E+02  0.1636E+03
    -14.653  0.2352E+02  0.1640E+03
    -14.639  0.2353E+02  0.1643E+03
    -14.625  0.2353E+02  0.1646E+03
    -14.611  0.2355E+02  0.1649E+03
    -14.597  0.2356E+02  0.1653E+03
    -14.583  0.2358E+02  0.1656E+03
    -14.569  0.2360E+02  0.1659E+03
    -14.555  0.2363E+02  0.1663E+03
    -14.541  0.2366E+02  0.1666E+03
    -14.527  0.2369E+02  0.1669E+03
    -14.513  0.2372E+02  0.1673E+03
    -14.499  0.2374E+02  0.1676E+03
    -14.485  0.2376E+02  0.1679E+03
    -14.471  0.2378E+02  0.1682E+03
    -14.457  0.2378E+02  0.1686E+03
    -14.443  0.2378E+02  0.1689E+03
    -14.429  0.2376E+02  0.1692E+03
    -14.415  0.2373E+02  0.1696E+03
    -14.401  0.2369E+02  0.1699E+03
    -14.387  0.2364E+02  0.1702E+03
    -14.373  0.2359E+02  0.1706E+03
    -14.359  0.2352E+02  0.1709E+03
    -14.345  0.2346E+02  0.1712E+03
    -14.331  0.2339E+02  0.1716E+03
    -14.317  0.2332E+02  0.1719E+03
    -14.303  0.2326E+02  0.1722E+03
    -14.289  0.2321E+02  0.1725E+03
    -14.275  0.2316E+02  0.1728E+03
    -14.261  0.2313E+02  0.1732E+03
    -14.247  0.2310E+02  0.1735E+03
    -14.234  0.2309E+02  0.1738E+03
    -14.220  0.2309E+02  0.1741E+03
    -14.206  0.2311E+02  0.1745E+03
    -14.192  0.2313E+02  0.1748E+03
    -14.178  0.2316E+02  0.1751E+03
    -14.164  0.2320E+02  0.1754E+03
    -14.150  0.2324E+02  0.1758E+03
    -14.136  0.2328E+02  0.1761E+03
    -14.122  0.2332E+02  0.1764E+03
    -14.108  0.2336E+02  0.1767E+03
    -14.094  0.2338E+02  0.1771E+03
    -14.080  0.2340E+02  0.1774E+03
    -14.066  0.2340E+02  0.1777E+03
    -14.052  0.2339E+02  0.1780E+03
    -14.038  0.2337E+02  0.1784E+03
    -14.024  0.2333E+02  0.1787E+03
    -14.010  0.2328E+02  0.1790E+03
    -13.996  0.2321E+02  0.1793E+03
    -13.982  0.2312E+02  0.1797E+03
    -13.968  0.2303E+02  0.1800E+03
    -13.954  0.2292E+02  0.1803E+03
    -13.940  0.2280E+02  0.1806E+03
    -13.926  0.2267E+02  0.1809E+03
    -13.912  0.2254E+02  0.1813E+03
    -13.898  0.2240E+02  0.1816E+03
    -13.884  0.2226E+02  0.1819E+03
    -13.870  0.2212E+02  0.1822E+03
    -13.856  0.2198E+02  0.1825E+03
    -13.842  0.2185E+02  0.1828E+03
    -13.828  0.2172E+02  0.1831E+03
    -13.814  0.2160E+02  0.1834E+03
    -13.800  0.2148E+02  0.1837E+03
    -13.786  0.2138E+02  0.1840E+03
    -13.773  0.2128E+02  0.1843E+03
    -13.759  0.2120E+02  0.1846E+03
    -13.745  0.2114E+02  0.1849E+03
    -13.731  0.2109E+02  0.1852E+03
    -13.717  0.2105E+02  0.1855E+03
    -13.703  0.2103E+02  0.1858E+03
    -13.689  0.2103E+02  0.1861E+03
    -13.675  0.2104E+02  0.1864E+03
    -13.661  0.2107E+02  0.1867E+03
    -13.647  0.2112E+02  0.1870E+03
    -13.633  0.2118E+02  0.1873E+03
    -13.619  0.2126E+02  0.1876E+03
    -13.605  0.2135E+02  0.1878E+03
    -13.591  0.2145E+02  0.1881E+03
    -13.577  0.2156E+02  0.1884E+03
    -13.563  0.2169E+02  0.1888E+03
    -13.549  0.2182E+02  0.1891E+03
    -13.535  0.2196E+02  0.1894E+03
    -13.521  0.2210E+02  0.1897E+03
    -13.507  0.2225E+02  0.1900E+03
    -13.493  0.2240E+02  0.1903E+03
    -13.479  0.2256E+02  0.1906E+03
    -13.465  0.2271E+02  0.1909E+03
    -13.451  0.2287E+02  0.1912E+03
    -13.437  0.2302E+02  0.1916E+03
    -13.423  0.2318E+02  0.1919E+03
    -13.409  0.2333E+02  0.1922E+03
    -13.395  0.2348E+02  0.1925E+03
    -13.381  0.2362E+02  0.1929E+03
    -13.367  0.2376E+02  0.1932E+03
    -13.353  0.2389E+02  0.1935E+03
    -13.339  0.2402E+02  0.1939E+03
    -13.325  0.2414E+02  0.1942E+03
    -13.312  0.2424E+02  0.1946E+03
    -13.298  0.2435E+02  0.1949E+03
    -13.284  0.2444E+02  0.1952E+03
    -13.270  0.2452E+02  0.1956E+03
    -13.256  0.2460E+02  0.1959E+03
    -13.242  0.2468E+02  0.1963E+03
    -13.228  0.2475E+02  0.1966E+03
    -13.214  0.2481E+02  0.1970E+03
    -13.200  0.2488E+02  0.1973E+03
    -13.186  0.2495E+02  0.1977E+03
    -13.172  0.2503E+02  0.1980E+03
    -13.158  0.2510E+02  0.1984E+03
    -13.144  0.2519E+02  0.1987E+03
    -13.130  0.2528E+02  0.1991E+03
    -13.116  0.2538E+02  0.1994E+03
    -13.102  0.2549E+02  0.1998E+03
    -13.088  0.2560E+02  0.2001E+03
    -13.074  0.2572E+02  0.2005E+03
    -13.060  0.2584E+02  0.2009E+03
    -13.046  0.2596E+02  0.2012E+03
    -13.032  0.2608E+02  0.2016E+03
    -13.018  0.2619E+02  0.2019E+03
    -13.004  0.2629E+02  0.2023E+03
    -12.990  0.2638E+02  0.2027E+03
    -12.976  0.2645E+02  0.2030E+03
    -12.962  0.2651E+02  0.2034E+03
    -12.948  0.2655E+02  0.2038E+03
    -12.934  0.2657E+02  0.2042E+03
    -12.920  0.2657E+02  0.2045E+03
    -12.906  0.2655E+02  0.2049E+03
    -12.892  0.2652E+02  0.2053E+03
    -12.878  0.2647E+02  0.2056E+03
    -12.864  0.2641E+02  0.2060E+03
    -12.851  0.2635E+02  0.2064E+03
    -12.837  0.2628E+02  0.2067E+03
    -12.823  0.2622E+02  0.2071E+03
    -12.809  0.2616E+02  0.2075E+03
    -12.795  0.2611E+02  0.2078E+03
    -12.781  0.2607E+02  0.2082E+03
    -12.767  0.2606E+02  0.2086E+03
    -12.753  0.2607E+02  0.2089E+03