 236 236   0   0
  0.2796966E+02  0.2982000E-08  0.2213561E-08  0.1000000E-08  0.5000000E-15
  1.000000000000000E-004
  CAR 
 unknown system                          
      4.94944626    -23.87253285 2000     -1.71928530      1.00000000
    -23.873  0.0000E+00  0.0000E+00
    -23.858  0.0000E+00  0.0000E+00
    -23.844  0.0000E+00  0.0000E+00
    -23.829  0.0000E+00  0.0000E+00
    -23.815  0.0000E+00  0.0000E+00
    -23.800  0.0000E+00  0.0000E+00
    -23.786  0.0000E+00  0.0000E+00
    -23.772  0.0000E+00  0.0000E+00
    -23.757  0.0000E+00  0.0000E+00
    -23.743  0.0000E+00  0.0000E+00
    -23.728  0.0000E+00  0.0000E+00
    -23.714  0.0000E+00  0.0000E+00
    -23.700  0.0000E+00  0.0000E+00
    -23.685  0.0000E+00  0.0000E+00
    -23.671  0.0000E+00  0.0000E+00
    -23.656  0.0000E+00  0.0000E+00
    -23.642  0.0000E+00  0.0000E+00
    -23.627  0.0000E+00  0.0000E+00
    -23.613  0.0000E+00  0.0000E+00
    -23.599  0.0000E+00  0.0000E+00
    -23.584  0.0000E+00  0.0000E+00
    -23.570  0.0000E+00  0.0000E+00
    -23.555  0.0000E+00  0.0000E+00
    -23.541  0.0000E+00  0.0000E+00
    -23.526  0.0000E+00  0.0000E+00
    -23.512  0.0000E+00  0.0000E+00
    -23.498  0.0000E+00  0.0000E+00
    -23.483  0.0000E+00  0.0000E+00
    -23.469  0.0000E+00  0.0000E+00
    -23.454  0.0000E+00  0.0000E+00
    -23.440  0.0000E+00  0.0000E+00
    -23.426  0.0000E+00  0.0000E+00
    -23.411  0.0000E+00  0.0000E+00
    -23.397  0.0000E+00  0.0000E+00
    -23.382  0.0000E+00  0.0000E+00
    -23.368  0.0000E+00  0.0000E+00
    -23.353  0.0000E+00  0.0000E+00
    -23.339  0.0000E+00  0.0000E+00
    -23.325  0.0000E+00  0.0000E+00
    -23.310  0.0000E+00  0.0000E+00
    -23.296  0.0000E+00  0.0000E+00
    -23.281  0.0000E+00  0.0000E+00
    -23.267  0.0000E+00  0.0000E+00
    -23.253  0.0000E+00  0.0000E+00
    -23.238  0.0000E+00  0.0000E+00
    -23.224  0.0000E+00  0.0000E+00
    -23.209  0.0000E+00  0.0000E+00
    -23.195  0.0000E+00  0.0000E+00
    -23.180  0.0000E+00  0.0000E+00
    -23.166  0.0000E+00  0.0000E+00
    -23.152  0.0000E+00  0.0000E+00
    -23.137  0.0000E+00  0.0000E+00
    -23.123  0.0000E+00  0.0000E+00
    -23.108  0.0000E+00  0.0000E+00
    -23.094  0.0000E+00  0.0000E+00
    -23.080  0.0000E+00  0.0000E+00
    -23.065  0.0000E+00  0.0000E+00
    -23.051  0.7700E-14  0.1110E-15
    -23.036  0.1283E-13  0.2961E-15
    -23.022  0.1797E-13  0.5551E-15
    -23.007  0.4877E-13  0.1258E-14
    -22.993  0.1155E-12  0.2924E-14
    -22.979  0.2567E-12  0.6624E-14
    -22.964  0.5672E-12  0.1480E-13
    -22.950  0.1255E-11  0.3290E-13
    -22.935  0.2747E-11  0.7251E-13
    -22.921  0.5924E-11  0.1579E-12
    -22.907  0.1266E-10  0.3405E-12
    -22.892  0.2678E-10  0.7266E-12
    -22.878  0.5606E-10  0.1535E-11
    -22.863  0.1161E-09  0.3209E-11
    -22.849  0.2381E-09  0.6643E-11
    -22.834  0.4833E-09  0.1361E-10
    -22.820  0.9707E-09  0.2761E-10
    -22.806  0.1930E-08  0.5543E-10
    -22.791  0.3797E-08  0.1102E-09
    -22.777  0.7392E-08  0.2168E-09
    -22.762  0.1425E-07  0.4222E-09
    -22.748  0.2717E-07  0.8139E-09
    -22.733  0.5129E-07  0.1553E-08
    -22.719  0.9582E-07  0.2935E-08
    -22.705  0.1772E-06  0.5490E-08
    -22.690  0.3242E-06  0.1016E-07
    -22.676  0.5873E-06  0.1863E-07
    -22.661  0.1053E-05  0.3381E-07
    -22.647  0.1868E-05  0.6074E-07
    -22.633  0.3279E-05  0.1080E-06
    -22.618  0.5698E-05  0.1902E-06
    -22.604  0.9801E-05  0.3315E-06
    -22.589  0.1668E-04  0.5720E-06
    -22.575  0.2811E-04  0.9773E-06
    -22.560  0.4686E-04  0.1653E-05
    -22.546  0.7734E-04  0.2768E-05
    -22.532  0.1263E-03  0.4589E-05
    -22.517  0.2042E-03  0.7533E-05
    -22.503  0.3266E-03  0.1224E-04
    -22.488  0.5172E-03  0.1970E-04
    -22.474  0.8105E-03  0.3138E-04
    -22.460  0.1257E-02  0.4951E-04
    -22.445  0.1930E-02  0.7733E-04
    -22.431  0.2931E-02  0.1196E-03
    -22.416  0.4408E-02  0.1831E-03
    -22.402  0.6559E-02  0.2777E-03
    -22.387  0.9661E-02  0.4170E-03
    -22.373  0.1408E-01  0.6200E-03
    -22.359  0.2032E-01  0.9130E-03
    -22.344  0.2901E-01  0.1331E-02
    -22.330  0.4099E-01  0.1922E-02
    -22.315  0.5734E-01  0.2749E-02
    -22.301  0.7937E-01  0.3893E-02
    -22.287  0.1087E+00  0.5461E-02
    -22.272  0.1474E+00  0.7587E-02
    -22.258  0.1979E+00  0.1044E-01
    -22.243  0.2628E+00  0.1423E-01
    -22.229  0.3455E+00  0.1921E-01
    -22.214  0.4495E+00  0.2569E-01
    -22.200  0.5788E+00  0.3404E-01
    -22.186  0.7377E+00  0.4467E-01
    -22.171  0.9304E+00  0.5809E-01
    -22.157  0.1162E+01  0.7484E-01
    -22.142  0.1435E+01  0.9553E-01
    -22.128  0.1755E+01  0.1208E+00
    -22.114  0.2124E+01  0.1515E+00
    -22.099  0.2545E+01  0.1881E+00
    -22.085  0.3017E+01  0.2316E+00
    -22.070  0.3540E+01  0.2827E+00
    -22.056  0.4112E+01  0.3420E+00
    -22.041  0.4727E+01  0.4101E+00
    -22.027  0.5379E+01  0.4877E+00
    -22.013  0.6058E+01  0.5750E+00
    -21.998  0.6753E+01  0.6724E+00
    -21.984  0.7453E+01  0.7798E+00
    -21.969  0.8141E+01  0.8972E+00
    -21.955  0.8805E+01  0.1024E+01
    -21.940  0.9427E+01  0.1160E+01
    -21.926  0.9994E+01  0.1304E+01
    -21.912  0.1049E+02  0.1455E+01
    -21.897  0.1091E+02  0.1613E+01
    -21.883  0.1124E+02  0.1775E+01
    -21.868  0.1147E+02  0.1940E+01
    -21.854  0.1160E+02  0.2107E+01
    -21.840  0.1163E+02  0.2275E+01
    -21.825  0.1158E+02  0.2442E+01
    -21.811  0.1143E+02  0.2607E+01
    -21.796  0.1122E+02  0.2769E+01
    -21.782  0.1095E+02  0.2927E+01
    -21.767  0.1064E+02  0.3080E+01
    -21.753  0.1031E+02  0.3229E+01
    -21.739  0.9974E+01  0.3372E+01
    -21.724  0.9656E+01  0.3512E+01
    -21.710  0.9371E+01  0.3647E+01
    -21.695  0.9137E+01  0.3778E+01
    -21.681  0.8967E+01  0.3908E+01
    -21.667  0.8873E+01  0.4036E+01
    -21.652  0.8863E+01  0.4163E+01
    -21.638  0.8943E+01  0.4292E+01
    -21.623  0.9117E+01  0.4424E+01
    -21.609  0.9384E+01  0.4559E+01
    -21.594  0.9743E+01  0.4700E+01
    -21.580  0.1019E+02  0.4847E+01
    -21.566  0.1072E+02  0.5001E+01
    -21.551  0.1132E+02  0.5164E+01
    -21.537  0.1199E+02  0.5337E+01
    -21.522  0.1272E+02  0.5521E+01
    -21.508  0.1350E+02  0.5715E+01
    -21.494  0.1431E+02  0.5922E+01
    -21.479  0.1516E+02  0.6140E+01
    -21.465  0.1604E+02  0.6371E+01
    -21.450  0.1692E+02  0.6615E+01
    -21.436  0.1781E+02  0.6872E+01
    -21.421  0.1870E+02  0.7142E+01
    -21.407  0.1958E+02  0.7424E+01
    -21.393  0.2044E+02  0.7719E+01
    -21.378  0.2128E+02  0.8026E+01
    -21.364  0.2209E+02  0.8344E+01
    -21.349  0.2286E+02  0.8674E+01
    -21.335  0.2359E+02  0.9014E+01
    -21.321  0.2427E+02  0.9364E+01
    -21.306  0.2490E+02  0.9723E+01
    -21.292  0.2547E+02  0.1009E+02
    -21.277  0.2599E+02  0.1046E+02
    -21.263  0.2645E+02  0.1085E+02
    -21.248  0.2685E+02  0.1123E+02
    -21.234  0.2718E+02  0.1163E+02
    -21.220  0.2745E+02  0.1202E+02
    -21.205  0.2765E+02  0.1242E+02
    -21.191  0.2779E+02  0.1282E+02
    -21.176  0.2787E+02  0.1322E+02
    -21.162  0.2788E+02  0.1362E+02
    -21.147  0.2783E+02  0.1403E+02
    -21.133  0.2772E+02  0.1443E+02
    -21.119  0.2755E+02  0.1482E+02
    -21.104  0.2733E+02  0.1522E+02
    -21.090  0.2705E+02  0.1561E+02
    -21.075  0.2673E+02  0.1599E+02
    -21.061  0.2637E+02  0.1637E+02
    -21.047  0.2597E+02  0.1675E+02
    -21.032  0.2555E+02  0.1711E+02
    -21.018  0.2510E+02  0.1748E+02
    -21.003  0.2464E+02  0.1783E+02
    -20.989  0.2417E+02  0.1818E+02
    -20.974  0.2370E+02  0.1852E+02
    -20.960  0.2324E+02  0.1886E+02
    -20.946  0.2281E+02  0.1919E+02
    -20.931  0.2240E+02  0.1951E+02
    -20.917  0.2202E+02  0.1983E+02
    -20.902  0.2169E+02  0.2014E+02
    -20.888  0.2140E+02  0.2045E+02
    -20.874  0.2117E+02  0.2075E+02
    -20.859  0.2100E+02  0.2106E+02
    -20.845  0.2089E+02  0.2136E+02
    -20.830  0.2084E+02  0.2166E+02
    -20.816  0.2085E+02  0.2196E+02
    -20.801  0.2093E+02  0.2226E+02
    -20.787  0.2105E+02  0.2256E+02
    -20.773  0.2123E+02  0.2287E+02
    -20.758  0.2144E+02  0.2318E+02
    -20.744  0.2169E+02  0.2349E+02
    -20.729  0.2196E+02  0.2381E+02
    -20.715  0.2224E+02  0.2413E+02
    -20.701  0.2253E+02  0.2445E+02
    -20.686  0.2282E+02  0.2478E+02
    -20.672  0.2310E+02  0.2512E+02
    -20.657  0.2337E+02  0.2545E+02
    -20.643  0.2362E+02  0.2579E+02
    -20.628  0.2386E+02  0.2614E+02
    -20.614  0.2408E+02  0.2648E+02
    -20.600  0.2429E+02  0.2683E+02
    -20.585  0.2450E+02  0.2719E+02
    -20.571  0.2471E+02  0.2754E+02
    -20.556  0.2492E+02  0.2790E+02
    -20.542  0.2514E+02  0.2827E+02
    -20.528  0.2539E+02  0.2863E+02
    -20.513  0.2566E+02  0.2900E+02
    -20.499  0.2595E+02  0.2938E+02
    -20.484  0.2628E+02  0.2975E+02
    -20.470  0.2663E+02  0.3014E+02
    -20.455  0.2702E+02  0.3053E+02
    -20.441  0.2743E+02  0.3092E+02
    -20.427  0.2786E+02  0.3132E+02
    -20.412  0.2832E+02  0.3173E+02
    -20.398  0.2878E+02  0.3215E+02
    -20.383  0.2924E+02  0.3257E+02
    -20.369  0.2970E+02  0.3300E+02
    -20.354  0.3015E+02  0.3343E+02
    -20.340  0.3058E+02  0.3387E+02
    -20.326  0.3099E+02  0.3432E+02
    -20.311  0.3136E+02  0.3477E+02
    -20.297  0.3170E+02  0.3523E+02
    -20.282  0.3199E+02  0.3569E+02
    -20.268  0.3225E+02  0.3616E+02
    -20.254  0.3247E+02  0.3662E+02
    -20.239  0.3264E+02  0.3709E+02
    -20.225  0.3277E+02  0.3757E+02
    -20.210  0.3287E+02  0.3804E+02
    -20.196  0.3294E+02  0.3852E+02
    -20.181  0.3298E+02  0.3899E+02
    -20.167  0.3299E+02  0.3947E+02
    -20.153  0.3300E+02  0.3994E+02
    -20.138  0.3299E+02  0.4042E+02
    -20.124  0.3298E+02  0.4089E+02
    -20.109  0.3298E+02  0.4137E+02
    -20.095  0.3299E+02  0.4185E+02
    -20.081  0.3301E+02  0.4232E+02
    -20.066  0.3305E+02  0.4280E+02
    -20.052  0.3311E+02  0.4327E+02
    -20.037  0.3319E+02  0.4375E+02
    -20.023  0.3330E+02  0.4423E+02
    -20.008  0.3342E+02  0.4472E+02
    -19.994  0.3357E+02  0.4520E+02
    -19.980  0.3373E+02  0.4569E+02
    -19.965  0.3390E+02  0.4617E+02
    -19.951  0.3408E+02  0.4667E+02
    -19.936  0.3426E+02  0.4716E+02
    -19.922  0.3444E+02  0.4766E+02
    -19.908  0.3461E+02  0.4816E+02
    -19.893  0.3478E+02  0.4866E+02
    -19.879  0.3494E+02  0.4916E+02
    -19.864  0.3509E+02  0.4967E+02
    -19.850  0.3522E+02  0.5017E+02
    -19.835  0.3534E+02  0.5068E+02
    -19.821  0.3546E+02  0.5120E+02
    -19.807  0.3556E+02  0.5171E+02
    -19.792  0.3565E+02  0.5222E+02
    -19.778  0.3574E+02  0.5274E+02
    -19.763  0.3582E+02  0.5325E+02
    -19.749  0.3590E+02  0.5377E+02
    -19.735  0.3597E+02  0.5429E+02
    -19.720  0.3603E+02  0.5481E+02
    -19.706  0.3609E+02  0.5533E+02
    -19.691  0.3614E+02  0.5585E+02
    -19.677  0.3619E+02  0.5637E+02
    -19.662  0.3623E+02  0.5690E+02
    -19.648  0.3625E+02  0.5742E+02
    -19.634  0.3627E+02  0.5794E+02
    -19.619  0.3628E+02  0.5846E+02
    -19.605  0.3627E+02  0.5899E+02
    -19.590  0.3625E+02  0.5951E+02
    -19.576  0.3622E+02  0.6003E+02
    -19.561  0.3617E+02  0.6055E+02
    -19.547  0.3612E+02  0.6107E+02
    -19.533  0.3605E+02  0.6159E+02
    -19.518  0.3597E+02  0.6211E+02
    -19.504  0.3588E+02  0.6263E+02
    -19.489  0.3578E+02  0.6315E+02
    -19.475  0.3568E+02  0.6366E+02
    -19.461  0.3557E+02  0.6417E+02
    -19.446  0.3546E+02  0.6468E+02
    -19.432  0.3535E+02  0.6519E+02
    -19.417  0.3523E+02  0.6570E+02
    -19.403  0.3512E+02  0.6621E+02
    -19.388  0.3501E+02  0.6671E+02
    -19.374  0.3490E+02  0.6722E+02
    -19.360  0.3480E+02  0.6772E+02
    -19.345  0.3471E+02  0.6822E+02
    -19.331  0.3462E+02  0.6872E+02
    -19.316  0.3454E+02  0.6922E+02
    -19.302  0.3446E+02  0.6971E+02
    -19.288  0.3440E+02  0.7021E+02
    -19.273  0.3434E+02  0.7070E+02
    -19.259  0.3428E+02  0.7120E+02
    -19.244  0.3423E+02  0.7169E+02
    -19.230  0.3418E+02  0.7218E+02
    -19.215  0.3413E+02  0.7268E+02
    -19.201  0.3409E+02  0.7317E+02
    -19.187  0.3405E+02  0.7366E+02
    -19.172  0.3400E+02  0.7415E+02
    -19.158  0.3396E+02  0.7464E+02
    -19.143  0.3393E+02  0.7513E+02
    -19.129  0.3389E+02  0.7562E+02
    -19.115  0.3386E+02  0.7610E+02
    -19.100  0.3384E+02  0.7659E+02
    -19.086  0.3382E+02  0.7708E+02
    -19.071  0.3381E+02  0.7757E+02
    -19.057  0.3381E+02  0.7806E+02
    -19.042  0.3382E+02  0.7854E+02
    -19.028  0.3384E+02  0.7903E+02
    -19.014  0.3388E+02  0.7952E+02
    -18.999  0.3393E+02  0.8001E+02
    -18.985  0.3399E+02  0.8050E+02
    -18.970  0.3406E+02  0.8099E+02
    -18.956  0.3414E+02  0.8148E+02
    -18.942  0.3424E+02  0.8198E+02
    -18.927  0.3434E+02  0.8247E+02
    -18.913  0.3446E+02  0.8297E+02
    -18.898  0.3459E+02  0.8347E+02
    -18.884  0.3472E+02  0.8397E+02
    -18.869  0.3487E+02  0.8447E+02
    -18.855  0.3502E+02  0.8497E+02
    -18.841  0.3519E+02  0.8548E+02
    -18.826  0.3536E+02  0.8599E+02
    -18.812  0.3553E+02  0.8650E+02
    -18.797  0.3572E+02  0.8702E+02
    -18.783  0.3591E+02  0.8754E+02
    -18.768  0.3610E+02  0.8806E+02
    -18.754  0.3630E+02  0.8858E+02
    -18.740  0.3650E+02  0.8911E+02
    -18.725  0.3670E+02  0.8964E+02
    -18.711  0.3690E+02  0.9017E+02
    -18.696  0.3709E+02  0.9070E+02
    -18.682  0.3728E+02  0.9124E+02
    -18.668  0.3745E+02  0.9178E+02
    -18.653  0.3762E+02  0.9232E+02
    -18.639  0.3777E+02  0.9287E+02
    -18.624  0.3790E+02  0.9341E+02
    -18.610  0.3801E+02  0.9396E+02
    -18.595  0.3811E+02  0.9451E+02
    -18.581  0.3818E+02  0.9506E+02
    -18.567  0.3824E+02  0.9561E+02
    -18.552  0.3828E+02  0.9616E+02
    -18.538  0.3831E+02  0.9672E+02
    -18.523  0.3832E+02  0.9727E+02
    -18.509  0.3832E+02  0.9782E+02
    -18.495  0.3832E+02  0.9837E+02
    -18.480  0.3831E+02  0.9893E+02
    -18.466  0.3831E+02  0.9948E+02
    -18.451  0.3832E+02  0.1000E+03
    -18.437  0.3833E+02  0.1006E+03
    -18.422  0.3836E+02  0.1011E+03
    -18.408  0.3841E+02  0.1017E+03
    -18.394  0.3848E+02  0.1022E+03
    -18.379  0.3857E+02  0.1028E+03
    -18.365  0.3868E+02  0.1034E+03
    -18.350  0.3881E+02  0.1039E+03
    -18.336  0.3896E+02  0.1045E+03
    -18.322  0.3912E+02  0.1050E+03
    -18.307  0.3929E+02  0.1056E+03
    -18.293  0.3947E+02  0.1062E+03
    -18.278  0.3964E+02  0.1068E+03
    -18.264  0.3980E+02  0.1073E+03
    -18.249  0.3994E+02  0.1079E+03
    -18.235  0.4006E+02  0.1085E+03
    -18.221  0.4014E+02  0.1091E+03
    -18.206  0.4017E+02  0.1096E+03
    -18.192  0.4016E+02  0.1102E+03
    -18.177  0.4010E+02  0.1108E+03
    -18.163  0.3997E+02  0.1114E+03
    -18.149  0.3979E+02  0.1119E+03
    -18.134  0.3955E+02  0.1125E+03
    -18.120  0.3925E+02  0.1131E+03
    -18.105  0.3890E+02  0.1136E+03
    -18.091  0.3850E+02  0.1142E+03
    -18.076  0.3807E+02  0.1147E+03
    -18.062  0.3761E+02  0.1153E+03
    -18.048  0.3712E+02  0.1158E+03
    -18.033  0.3664E+02  0.1164E+03
    -18.019  0.3615E+02  0.1169E+03
    -18.004  0.3568E+02  0.1174E+03
    -17.990  0.3523E+02  0.1179E+03
    -17.975  0.3481E+02  0.1184E+03
    -17.961  0.3443E+02  0.1189E+03
    -17.947  0.3410E+02  0.1194E+03
    -17.932  0.3381E+02  0.1199E+03
    -17.918  0.3357E+02  0.1204E+03
    -17.903  0.3337E+02  0.1208E+03
    -17.889  0.3323E+02  0.1213E+03
    -17.875  0.3312E+02  0.1218E+03
    -17.860  0.3306E+02  0.1223E+03
    -17.846  0.3303E+02  0.1227E+03
    -17.831  0.3304E+02  0.1232E+03
    -17.817  0.3307E+02  0.1237E+03
    -17.802  0.3312E+02  0.1242E+03
    -17.788  0.3319E+02  0.1247E+03
    -17.774  0.3327E+02  0.1251E+03
    -17.759  0.3336E+02  0.1256E+03
    -17.745  0.3347E+02  0.1261E+03
    -17.730  0.3358E+02  0.1266E+03
    -17.716  0.3370E+02  0.1271E+03
    -17.702  0.3383E+02  0.1276E+03
    -17.687  0.3396E+02  0.1280E+03
    -17.673  0.3410E+02  0.1285E+03
    -17.658  0.3425E+02  0.1290E+03
    -17.644  0.3440E+02  0.1295E+03
    -17.629  0.3457E+02  0.1300E+03
    -17.615  0.3474E+02  0.1305E+03
    -17.601  0.3491E+02  0.1310E+03
    -17.586  0.3510E+02  0.1315E+03
    -17.572  0.3529E+02  0.1320E+03
    -17.557  0.3548E+02  0.1326E+03
    -17.543  0.3568E+02  0.1331E+03
    -17.529  0.3589E+02  0.1336E+03
    -17.514  0.3610E+02  0.1341E+03
    -17.500  0.3631E+02  0.1346E+03
    -17.485  0.3652E+02  0.1352E+03
    -17.471  0.3674E+02  0.1357E+03
    -17.456  0.3695E+02  0.1362E+03
    -17.442  0.3717E+02  0.1368E+03
    -17.428  0.3738E+02  0.1373E+03
    -17.413  0.3758E+02  0.1378E+03
    -17.399  0.3778E+02  0.1384E+03
    -17.384  0.3797E+02  0.1389E+03
    -17.370  0.3815E+02  0.1395E+03
    -17.356  0.3831E+02  0.1400E+03
    -17.341  0.3846E+02  0.1406E+03
    -17.327  0.3859E+02  0.1411E+03
    -17.312  0.3869E+02  0.1417E+03
    -17.298  0.3878E+02  0.1423E+03
    -17.283  0.3884E+02  0.1428E+03
    -17.269  0.3887E+02  0.1434E+03
    -17.255  0.3888E+02  0.1439E+03
    -17.240  0.3886E+02  0.1445E+03
    -17.226  0.3882E+02  0.1451E+03
    -17.211  0.3876E+02  0.1456E+03
    -17.197  0.3867E+02  0.1462E+03
    -17.182  0.3856E+02  0.1467E+03
    -17.168  0.3843E+02  0.1473E+03
    -17.154  0.3829E+02  0.1478E+03
    -17.139  0.3814E+02  0.1484E+03
    -17.125  0.3799E+02  0.1489E+03
    -17.110  0.3783E+02  0.1495E+03
    -17.096  0.3767E+02  0.1500E+03
    -17.082  0.3753E+02  0.1506E+03
    -17.067  0.3739E+02  0.1511E+03
    -17.053  0.3726E+02  0.1516E+03
    -17.038  0.3716E+02  0.1522E+03
    -17.024  0.3707E+02  0.1527E+03
    -17.009  0.3700E+02  0.1532E+03
    -16.995  0.3695E+02  0.1538E+03
    -16.981  0.3691E+02  0.1543E+03
    -16.966  0.3690E+02  0.1548E+03
    -16.952  0.3689E+02  0.1554E+03
    -16.937  0.3690E+02  0.1559E+03
    -16.923  0.3690E+02  0.1564E+03
    -16.909  0.3691E+02  0.1570E+03
    -16.894  0.3690E+02  0.1575E+03
    -16.880  0.3688E+02  0.1580E+03
    -16.865  0.3684E+02  0.1586E+03
    -16.851  0.3678E+02  0.1591E+03
    -16.836  0.3669E+02  0.1596E+03
    -16.822  0.3657E+02  0.1602E+03
    -16.808  0.3642E+02  0.1607E+03
    -16.793  0.3624E+02  0.1612E+03
    -16.779  0.3603E+02  0.1617E+03
    -16.764  0.3579E+02  0.1622E+03
    -16.750  0.3553E+02  0.1628E+03
    -16.736  0.3526E+02  0.1633E+03
    -16.721  0.3497E+02  0.1638E+03
    -16.707  0.3468E+02  0.1643E+03
    -16.692  0.3439E+02  0.1648E+03
    -16.678  0.3412E+02  0.1653E+03
    -16.663  0.3386E+02  0.1657E+03
    -16.649  0.3363E+02  0.1662E+03
    -16.635  0.3343E+02  0.1667E+03
    -16.620  0.3327E+02  0.1672E+03
    -16.606  0.3315E+02  0.1677E+03
    -16.591  0.3308E+02  0.1681E+03
    -16.577  0.3306E+02  0.1686E+03
    -16.563  0.3310E+02  0.1691E+03
    -16.548  0.3319E+02  0.1696E+03
    -16.534  0.3334E+02  0.1701E+03
    -16.519  0.3355E+02  0.1705E+03
    -16.505  0.3381E+02  0.1710E+03
    -16.490  0.3412E+02  0.1715E+03
    -16.476  0.3448E+02  0.1720E+03
    -16.462  0.3488E+02  0.1725E+03
    -16.447  0.3532E+02  0.1730E+03
    -16.433  0.3579E+02  0.1735E+03
    -16.418  0.3628E+02  0.1741E+03
    -16.404  0.3679E+02  0.1746E+03
    -16.389  0.3730E+02  0.1751E+03
    -16.375  0.3782E+02  0.1757E+03
    -16.361  0.3833E+02  0.1762E+03
    -16.346  0.3882E+02  0.1768E+03
    -16.332  0.3929E+02  0.1774E+03
    -16.317  0.3974E+02  0.1779E+03
    -16.303  0.4015E+02  0.1785E+03
    -16.289  0.4053E+02  0.1791E+03
    -16.274  0.4087E+02  0.1797E+03
    -16.260  0.4118E+02  0.1803E+03
    -16.245  0.4145E+02  0.1809E+03
    -16.231  0.4168E+02  0.1815E+03
    -16.216  0.4188E+02  0.1821E+03
    -16.202  0.4204E+02  0.1827E+03
    -16.188  0.4218E+02  0.1833E+03
    -16.173  0.4229E+02  0.1839E+03
    -16.159  0.4237E+02  0.1845E+03
    -16.144  0.4244E+02  0.1851E+03
    -16.130  0.4248E+02  0.1857E+03
    -16.116  0.4251E+02  0.1864E+03
    -16.101  0.4253E+02  0.1870E+03
    -16.087  0.4253E+02  0.1876E+03
    -16.072  0.4252E+02  0.1882E+03
    -16.058  0.4250E+02  0.1888E+03
    -16.043  0.4246E+02  0.1894E+03
    -16.029  0.4240E+02  0.1900E+03
    -16.015  0.4232E+02  0.1906E+03
    -16.000  0.4222E+02  0.1912E+03
    -15.986  0.4210E+02  0.1919E+03
    -15.971  0.4194E+02  0.1925E+03
    -15.957  0.4175E+02  0.1931E+03
    -15.943  0.4153E+02  0.1937E+03
    -15.928  0.4127E+02  0.1943E+03
    -15.914  0.4097E+02  0.1948E+03
    -15.899  0.4062E+02  0.1954E+03
    -15.885  0.4024E+02  0.1960E+03
    -15.870  0.3982E+02  0.1966E+03
    -15.856  0.3936E+02  0.1972E+03
    -15.842  0.3887E+02  0.1977E+03
    -15.827  0.3835E+02  0.1983E+03
    -15.813  0.3780E+02  0.1988E+03
    -15.798  0.3724E+02  0.1993E+03
    -15.784  0.3667E+02  0.1999E+03
    -15.770  0.3609E+02  0.2004E+03
    -15.755  0.3552E+02  0.2009E+03
    -15.741  0.3497E+02  0.2014E+03
    -15.726  0.3444E+02  0.2019E+03
    -15.712  0.3394E+02  0.2024E+03
    -15.697  0.3347E+02  0.2029E+03
    -15.683  0.3305E+02  0.2034E+03
    -15.669  0.3268E+02  0.2038E+03
    -15.654  0.3237E+02  0.2043E+03
    -15.640  0.3211E+02  0.2048E+03
    -15.625  0.3191E+02  0.2052E+03
    -15.611  0.3178E+02  0.2057E+03
    -15.596  0.3169E+02  0.2061E+03
    -15.582  0.3167E+02  0.2066E+03
    -15.568  0.3169E+02  0.2070E+03
    -15.553  0.3177E+02  0.2075E+03
    -15.539  0.3188E+02  0.2080E+03
    -15.524  0.3203E+02  0.2084E+03
    -15.510  0.3221E+02  0.2089E+03
    -15.496  0.3241E+02  0.2094E+03
    -15.481  0.3262E+02  0.2098E+03
    -15.467  0.3285E+02  0.2103E+03
    -15.452  0.3308E+02  0.2108E+03
    -15.438  0.3331E+02  0.2113E+03
    -15.423  0.3353E+02  0.2117E+03
    -15.409  0.3375E+02  0.2122E+03
    -15.395  0.3396E+02  0.2127E+03
    -15.380  0.3415E+02  0.2132E+03
    -15.366  0.3434E+02  0.2137E+03
    -15.351  0.3451E+02  0.2142E+03
    -15.337  0.3468E+02  0.2147E+03
    -15.323  0.3483E+02  0.2152E+03
    -15.308  0.3498E+02  0.2157E+03
    -15.294  0.3512E+02  0.2162E+03
    -15.279  0.3526E+02  0.2167E+03
    -15.265  0.3539E+02  0.2172E+03
    -15.250  0.3552E+02  0.2177E+03
    -15.236  0.3566E+02  0.2183E+03
    -15.222  0.3579E+02  0.2188E+03
    -15.207  0.3593E+02  0.2193E+03
    -15.193  0.3606E+02  0.2198E+03
    -15.178  0.3620E+02  0.2203E+03
    -15.164  0.3634E+02  0.2209E+03
    -15.150  0.3647E+02  0.2214E+03
    -15.135  0.3661E+02  0.2219E+03
    -15.121  0.3673E+02  0.2224E+03
    -15.106  0.3684E+02  0.2230E+03
    -15.092  0.3695E+02  0.2235E+03
    -15.077  0.3704E+02  0.2240E+03
    -15.063  0.3711E+02  0.2246E+03
    -15.049  0.3717E+02  0.2251E+03
    -15.034  0.3720E+02  0.2257E+03
    -15.020  0.3722E+02  0.2262E+03
    -15.005  0.3722E+02  0.2267E+03
    -14.991  0.3720E+02  0.2273E+03
    -14.977  0.3716E+02  0.2278E+03
    -14.962  0.3712E+02  0.2283E+03
    -14.948  0.3706E+02  0.2289E+03
    -14.933  0.3701E+02  0.2294E+03
    -14.919  0.3696E+02  0.2299E+03
    -14.904  0.3691E+02  0.2305E+03
    -14.890  0.3688E+02  0.2310E+03
    -14.876  0.3687E+02  0.2315E+03
    -14.861  0.3688E+02  0.2321E+03
    -14.847  0.3692E+02  0.2326E+03
    -14.832  0.3698E+02  0.2331E+03
    -14.818  0.3707E+02  0.2337E+03
    -14.803  0.3718E+02  0.2342E+03
    -14.789  0.3732E+02  0.2347E+03
    -14.775  0.3748E+02  0.2353E+03
    -14.760  0.3765E+02  0.2358E+03
    -14.746  0.3783E+02  0.2364E+03
    -14.731  0.3801E+02  0.2369E+03
    -14.717  0.3819E+02  0.2375E+03
    -14.703  0.3836E+02  0.2380E+03
    -14.688  0.3851E+02  0.2386E+03
    -14.674  0.3863E+02  0.2391E+03
    -14.659  0.3873E+02  0.2397E+03
    -14.645  0.3879E+02  0.2402E+03
    -14.630  0.3882E+02  0.2408E+03
    -14.616  0.3881E+02  0.2414E+03
    -14.602  0.3877E+02  0.2419E+03
    -14.587  0.3870E+02  0.2425E+03
    -14.573  0.3860E+02  0.2430E+03
    -14.558  0.3848E+02  0.2436E+03
    -14.544  0.3834E+02  0.2441E+03
    -14.530  0.3820E+02  0.2447E+03
    -14.515  0.3805E+02  0.2452E+03
    -14.501  0.3791E+02  0.2458E+03
    -14.486  0.3778E+02  0.2463E+03
    -14.472  0.3767E+02  0.2469E+03
    -14.457  0.3759E+02  0.2474E+03
    -14.443  0.3754E+02  0.2480E+03
    -14.429  0.3752E+02  0.2485E+03
    -14.414  0.3754E+02  0.2490E+03
    -14.400  0.3759E+02  0.2496E+03
    -14.385  0.3769E+02  0.2501E+03
    -14.371  0.3781E+02  0.2507E+03
    -14.357  0.3797E+02  0.2512E+03
    -14.342  0.3816E+02  0.2518E+03
    -14.328  0.3837E+02  0.2523E+03
    -14.313  0.3861E+02  0.2529E+03
    -14.299  0.3885E+02  0.2534E+03
    -14.284  0.3911E+02  0.2540E+03
    -14.270  0.3936E+02  0.2546E+03
    -14.256  0.3961E+02  0.2551E+03
    -14.241  0.3985E+02  0.2557E+03
    -14.227  0.4008E+02  0.2563E+03
    -14.212  0.4028E+02  0.2569E+03
    -14.198  0.4046E+02  0.2575E+03
    -14.184  0.4062E+02  0.2580E+03
    -14.169  0.4074E+02  0.2586E+03
    -14.155  0.4083E+02  0.2592E+03
    -14.140  0.4089E+02  0.2598E+03
    -14.126  0.4092E+02  0.2604E+03
    -14.111  0.4092E+02  0.2610E+03
    -14.097  0.4089E+02  0.2616E+03
    -14.083  0.4083E+02  0.2622E+03
    -14.068  0.4075E+02  0.2628E+03
    -14.054  0.4065E+02  0.2633E+03
    -14.039  0.4052E+02  0.2639E+03
    -14.025  0.4038E+02  0.2645E+03
    -14.010  0.4022E+02  0.2651E+03
    -13.996  0.4006E+02  0.2657E+03
    -13.982  0.3988E+02  0.2662E+03
    -13.967  0.3969E+02  0.2668E+03
    -13.953  0.3949E+02  0.2674E+03
    -13.938  0.3928E+02  0.2680E+03
    -13.924  0.3907E+02  0.2685E+03
    -13.910  0.3885E+02  0.2691E+03
    -13.895  0.3862E+02  0.2696E+03
    -13.881  0.3839E+02  0.2702E+03
    -13.866  0.3815E+02  0.2707E+03
    -13.852  0.3791E+02  0.2713E+03
    -13.837  0.3766E+02  0.2718E+03
    -13.823  0.3741E+02  0.2724E+03
    -13.809  0.3715E+02  0.2729E+03
    -13.794  0.3689E+02  0.2734E+03
    -13.780  0.3664E+02  0.2740E+03
    -13.765  0.3638E+02  0.2745E+03
    -13.751  0.3612E+02  0.2750E+03
    -13.737  0.3587E+02  0.2755E+03
    -13.722  0.3562E+02  0.2760E+03
    -13.708  0.3538E+02  0.2765E+03
    -13.693  0.3515E+02  0.2771E+03
    -13.679  0.3492E+02  0.2776E+03
    -13.664  0.3471E+02  0.2781E+03
    -13.650  0.3451E+02  0.2786E+03
    -13.636  0.3433E+02  0.2790E+03
    -13.621  0.3416E+02  0.2795E+03
    -13.607  0.3401E+02  0.2800E+03
    -13.592  0.3388E+02  0.2805E+03
    -13.578  0.3377E+02  0.2810E+03
    -13.564  0.3368E+02  0.2815E+03
    -13.549  0.3361E+02  0.2820E+03
    -13.535  0.3356E+02  0.2825E+03
    -13.520  0.3354E+02  0.2829E+03
    -13.506  0.3355E+02  0.2834E+03
    -13.491  0.3357E+02  0.2839E+03
    -13.477  0.3362E+02  0.2844E+03
    -13.463  0.3369E+02  0.2849E+03
    -13.448  0.3379E+02  0.2854E+03
    -13.434  0.3390E+02  0.2859E+03
    -13.419  0.3404E+02  0.2864E+03
    -13.405  0.3420E+02  0.2868E+03
    -13.391  0.3437E+02  0.2873E+03
    -13.376  0.3456E+02  0.2878E+03
    -13.362  0.3477E+02  0.2883E+03
    -13.347  0.3499E+02  0.2888E+03
    -13.333  0.3522E+02  0.2894E+03
    -13.318  0.3546E+02  0.2899E+03
    -13.304  0.3571E+02  0.2904E+03
    -13.290  0.3597E+02  0.2909E+03
    -13.275  0.3622E+02  0.2914E+03
    -13.261  0.3647E+02  0.2919E+03
    -13.246  0.3671E+02  0.2925E+03
    -13.232  0.3694E+02  0.2930E+03
    -13.217  0.3716E+02  0.2935E+03
    -13.203  0.3735E+02  0.2941E+03
    -13.189  0.3752E+02  0.2946E+03
    -13.174  0.3766E+02  0.2952E+03
    -13.160  0.3777E+02  0.2957E+03
    -13.145  0.3785E+02  0.2963E+03
    -13.131  0.3789E+02  0.2968E+03
    -13.117  0.3789E+02  0.2973E+03
    -13.102  0.3785E+02  0.2979E+03
    -13.088  0.3779E+02  0.2984E+03
    -13.073  0.3769E+02  0.2990E+03
    -13.059  0.3756E+02  0.2995E+03
    -13.044  0.3741E+02  0.3001E+03
    -13.030  0.3725E+02  0.3006E+03
    -13.016  0.3708E+02  0.3011E+03
    -13.001  0.3691E+02  0.3017E+03
    -12.987  0.3675E+02  0.3022E+03
    -12.972  0.3660E+02  0.3027E+03
    -12.958  0.3648E+02  0.3032E+03
    -12.944  0.3640E+02  0.3038E+03
    -12.929  0.3635E+02  0.3043E+03
    -12.915  0.3634E+02  0.3048E+03
    -12.900  0.3638E+02  0.3053E+03
    -12.886  0.3647E+02  0.3059E+03
    -12.871  0.3660E+02  0.3064E+03
    -12.857  0.3678E+02  0.3069E+03
    -12.843  0.3701E+02  0.3075E+03
    -12.828  0.3727E+02  0.3080E+03
    -12.814  0.3757E+02  0.3085E+03
    -12.799  0.3789E+02  0.3091E+03
    -12.785  0.3822E+02  0.3096E+03
    -12.771  0.3856E+02  0.3102E+03
    -12.756  0.3890E+02  0.3108E+03
    -12.742  0.3923E+02  0.3113E+03
    -12.727  0.3955E+02  0.3119E+03
    -12.713  0.3983E+02  0.3125E+03
    -12.698  0.4009E+02  0.3130E+03
    -12.684  0.4031E+02  0.3136E+03
    -12.670  0.4049E+02  0.3142E+03
    -12.655  0.4063E+02  0.3148E+03
    -12.641  0.4072E+02  0.3154E+03
    -12.626  0.4078E+02  0.3160E+03
    -12.612  0.4080E+02  0.3166E+03
    -12.598  0.4079E+02  0.3171E+03
    -12.583  0.4075E+02  0.3177E+03
    -12.569  0.4068E+02  0.3183E+03
    -12.554  0.4060E+02  0.3189E+03
    -12.540  0.4050E+02  0.3195E+03
    -12.525  0.4040E+02  0.3201E+03
    -12.511  0.4029E+02  0.3207E+03
    -12.497  0.4019E+02  0.3212E+03
    -12.482  0.4009E+02  0.3218E+03
    -12.468  0.4000E+02  0.3224E+03
    -12.453  0.3992E+02  0.3230E+03
    -12.439  0.3985E+02  0.3235E+03
    -12.424  0.3979E+02  0.3241E+03
    -12.410  0.3973E+02  0.3247E+03
    -12.396  0.3969E+02  0.3253E+03
    -12.381  0.3964E+02  0.3258E+03
    -12.367  0.3960E+02  0.3264E+03
    -12.352  0.3956E+02  0.3270E+03
    -12.338  0.3952E+02  0.3275E+03
    -12.324  0.3948E+02  0.3281E+03
    -12.309  0.3943E+02  0.3287E+03
    -12.295  0.3937E+02  0.3292E+03
    -12.280  0.3932E+02  0.3298E+03
    -12.266  0.3926E+02  0.3304E+03
    -12.251  0.3920E+02  0.3309E+03
    -12.237  0.3915E+02  0.3315E+03
    -12.223  0.3909E+02  0.3321E+03
    -12.208  0.3905E+02  0.3326E+03
    -12.194  0.3901E+02  0.3332E+03
    -12.179  0.3899E+02  0.3338E+03
    -12.165  0.3898E+02  0.3343E+03
    -12.151  0.3898E+02  0.3349E+03
    -12.136  0.3901E+02  0.3354E+03
    -12.122  0.3905E+02  0.3360E+03
    -12.107  0.3910E+02  0.3366E+03
    -12.093  0.3918E+02  0.3371E+03
    -12.078  0.3927E+02  0.3377E+03
    -12.064  0.3938E+02  0.3383E+03
    -12.050  0.3950E+02  0.3388E+03
    -12.035  0.3963E+02  0.3394E+03
    -12.021  0.3978E+02  0.3400E+03
    -12.006  0.3993E+02  0.3406E+03
    -11.992  0.4009E+02  0.3411E+03
    -11.978  0.4025E+02  0.3417E+03