 140 140   0   0
  0.5176506E+02  0.2117306E-08  0.1711398E-08  0.2000000E-08  0.5000000E-15
  1.000000000000000E-004
  CAR 
 unknown system                          
      3.61304577    -24.25174906 2000     -3.61406588      1.00000000
    -24.252  0.0000E+00  0.0000E+00
    -24.238  0.0000E+00  0.0000E+00
    -24.224  0.0000E+00  0.0000E+00
    -24.210  0.0000E+00  0.0000E+00
    -24.196  0.0000E+00  0.0000E+00
    -24.182  0.0000E+00  0.0000E+00
    -24.168  0.0000E+00  0.0000E+00
    -24.154  0.0000E+00  0.0000E+00
    -24.140  0.0000E+00  0.0000E+00
    -24.126  0.0000E+00  0.0000E+00
    -24.112  0.0000E+00  0.0000E+00
    -24.098  0.0000E+00  0.0000E+00
    -24.084  0.0000E+00  0.0000E+00
    -24.071  0.0000E+00  0.0000E+00
    -24.057  0.0000E+00  0.0000E+00
    -24.043  0.0000E+00  0.0000E+00
    -24.029  0.0000E+00  0.0000E+00
    -24.015  0.0000E+00  0.0000E+00
    -24.001  0.0000E+00  0.0000E+00
    -23.987  0.0000E+00  0.0000E+00
    -23.973  0.0000E+00  0.0000E+00
    -23.959  0.0000E+00  0.0000E+00
    -23.945  0.0000E+00  0.0000E+00
    -23.931  0.0000E+00  0.0000E+00
    -23.917  0.0000E+00  0.0000E+00
    -23.903  0.0000E+00  0.0000E+00
    -23.889  0.0000E+00  0.0000E+00
    -23.875  0.0000E+00  0.0000E+00
    -23.861  0.0000E+00  0.0000E+00
    -23.848  0.0000E+00  0.0000E+00
    -23.834  0.0000E+00  0.0000E+00
    -23.820  0.0000E+00  0.0000E+00
    -23.806  0.0000E+00  0.0000E+00
    -23.792  0.0000E+00  0.0000E+00
    -23.778  0.0000E+00  0.0000E+00
    -23.764  0.0000E+00  0.0000E+00
    -23.750  0.0000E+00  0.0000E+00
    -23.736  0.0000E+00  0.0000E+00
    -23.722  0.0000E+00  0.0000E+00
    -23.708  0.0000E+00  0.0000E+00
    -23.694  0.0000E+00  0.0000E+00
    -23.680  0.0000E+00  0.0000E+00
    -23.666  0.0000E+00  0.0000E+00
    -23.652  0.0000E+00  0.0000E+00
    -23.638  0.0000E+00  0.0000E+00
    -23.624  0.0000E+00  0.0000E+00
    -23.611  0.0000E+00  0.0000E+00
    -23.597  0.0000E+00  0.0000E+00
    -23.583  0.0000E+00  0.0000E+00
    -23.569  0.0000E+00  0.0000E+00
    -23.555  0.0000E+00  0.0000E+00
    -23.541  0.0000E+00  0.0000E+00
    -23.527  0.0000E+00  0.0000E+00
    -23.513  0.0000E+00  0.0000E+00
    -23.499  0.0000E+00  0.0000E+00
    -23.485  0.0000E+00  0.0000E+00
    -23.471  0.0000E+00  0.0000E+00
    -23.457  0.0000E+00  0.0000E+00
    -23.443  0.0000E+00  0.0000E+00
    -23.429  0.2655E-14  0.3701E-16
    -23.415  0.6195E-14  0.1234E-15
    -23.401  0.8850E-14  0.2467E-15
    -23.388  0.2035E-13  0.5304E-15
    -23.374  0.4779E-13  0.1197E-14
    -23.360  0.1097E-12  0.2726E-14
    -23.346  0.2319E-12  0.5958E-14
    -23.332  0.4973E-12  0.1289E-13
    -23.318  0.1065E-11  0.2774E-13
    -23.304  0.2253E-11  0.5915E-13
    -23.290  0.4719E-11  0.1249E-12
    -23.276  0.9785E-11  0.2613E-12
    -23.262  0.2009E-10  0.5413E-12
    -23.248  0.4086E-10  0.1111E-11
    -23.234  0.8228E-10  0.2258E-11
    -23.220  0.1641E-09  0.4546E-11
    -23.206  0.3242E-09  0.9065E-11
    -23.192  0.6343E-09  0.1791E-10
    -23.178  0.1229E-08  0.3504E-10
    -23.164  0.2358E-08  0.6791E-10
    -23.151  0.4482E-08  0.1304E-09
    -23.137  0.8435E-08  0.2480E-09
    -23.123  0.1572E-07  0.4671E-09
    -23.109  0.2903E-07  0.8717E-09
    -23.095  0.5307E-07  0.1611E-08
    -23.081  0.9608E-07  0.2951E-08
    -23.067  0.1723E-06  0.5353E-08
    -23.053  0.3060E-06  0.9618E-08
    -23.039  0.5382E-06  0.1712E-07
    -23.025  0.9376E-06  0.3019E-07
    -23.011  0.1618E-05  0.5274E-07
    -22.997  0.2764E-05  0.9126E-07
    -22.983  0.4677E-05  0.1565E-06
    -22.969  0.7838E-05  0.2657E-06
    -22.955  0.1301E-04  0.4471E-06
    -22.941  0.2139E-04  0.7452E-06
    -22.928  0.3482E-04  0.1231E-05
    -22.914  0.5615E-04  0.2013E-05
    -22.900  0.8968E-04  0.3263E-05
    -22.886  0.1418E-03  0.5241E-05
    -22.872  0.2222E-03  0.8338E-05
    -22.858  0.3448E-03  0.1314E-04
    -22.844  0.5299E-03  0.2053E-04
    -22.830  0.8066E-03  0.3177E-04
    -22.816  0.1216E-02  0.4873E-04
    -22.802  0.1816E-02  0.7404E-04
    -22.788  0.2686E-02  0.1115E-03
    -22.774  0.3935E-02  0.1663E-03
    -22.760  0.5710E-02  0.2459E-03
    -22.746  0.8207E-02  0.3603E-03
    -22.732  0.1169E-01  0.5232E-03
    -22.718  0.1648E-01  0.7530E-03
    -22.704  0.2303E-01  0.1074E-02
    -22.691  0.3187E-01  0.1518E-02
    -22.677  0.4370E-01  0.2127E-02
    -22.663  0.5936E-01  0.2955E-02
    -22.649  0.7988E-01  0.4068E-02
    -22.635  0.1065E+00  0.5553E-02
    -22.621  0.1407E+00  0.7514E-02
    -22.607  0.1842E+00  0.1008E-01
    -22.593  0.2389E+00  0.1341E-01
    -22.579  0.3071E+00  0.1769E-01
    -22.565  0.3912E+00  0.2314E-01
    -22.551  0.4939E+00  0.3003E-01
    -22.537  0.6180E+00  0.3864E-01
    -22.523  0.7666E+00  0.4933E-01
    -22.509  0.9428E+00  0.6247E-01
    -22.495  0.1149E+01  0.7849E-01
    -22.481  0.1390E+01  0.9786E-01
    -22.468  0.1666E+01  0.1211E+00
    -22.454  0.1981E+01  0.1487E+00
    -22.440  0.2336E+01  0.1812E+00
    -22.426  0.2733E+01  0.2193E+00
    -22.412  0.3172E+01  0.2636E+00
    -22.398  0.3653E+01  0.3145E+00
    -22.384  0.4176E+01  0.3727E+00
    -22.370  0.4738E+01  0.4387E+00
    -22.356  0.5337E+01  0.5131E+00
    -22.342  0.5969E+01  0.5963E+00
    -22.328  0.6629E+01  0.6887E+00
    -22.314  0.7312E+01  0.7907E+00
    -22.300  0.8011E+01  0.9023E+00
    -22.286  0.8720E+01  0.1024E+01
    -22.272  0.9431E+01  0.1155E+01
    -22.258  0.1013E+02  0.1297E+01
    -22.244  0.1082E+02  0.1448E+01
    -22.231  0.1149E+02  0.1608E+01
    -22.217  0.1212E+02  0.1777E+01
    -22.203  0.1271E+02  0.1954E+01
    -22.189  0.1326E+02  0.2139E+01
    -22.175  0.1375E+02  0.2330E+01
    -22.161  0.1417E+02  0.2528E+01
    -22.147  0.1453E+02  0.2730E+01
    -22.133  0.1481E+02  0.2937E+01
    -22.119  0.1502E+02  0.3146E+01
    -22.105  0.1516E+02  0.3358E+01
    -22.091  0.1523E+02  0.3570E+01
    -22.077  0.1523E+02  0.3782E+01
    -22.063  0.1516E+02  0.3993E+01
    -22.049  0.1504E+02  0.4203E+01
    -22.035  0.1487E+02  0.4410E+01
    -22.021  0.1467E+02  0.4615E+01
    -22.008  0.1445E+02  0.4816E+01
    -21.994  0.1422E+02  0.5015E+01
    -21.980  0.1399E+02  0.5210E+01
    -21.966  0.1378E+02  0.5402E+01
    -21.952  0.1359E+02  0.5591E+01
    -21.938  0.1345E+02  0.5778E+01
    -21.924  0.1335E+02  0.5964E+01
    -21.910  0.1331E+02  0.6150E+01
    -21.896  0.1332E+02  0.6336E+01
    -21.882  0.1341E+02  0.6523E+01
    -21.868  0.1355E+02  0.6711E+01
    -21.854  0.1376E+02  0.6903E+01
    -21.840  0.1403E+02  0.7099E+01
    -21.826  0.1436E+02  0.7299E+01
    -21.812  0.1474E+02  0.7505E+01
    -21.798  0.1516E+02  0.7716E+01
    -21.784  0.1561E+02  0.7933E+01
    -21.771  0.1609E+02  0.8158E+01
    -21.757  0.1660E+02  0.8389E+01
    -21.743  0.1711E+02  0.8628E+01
    -21.729  0.1762E+02  0.8873E+01
    -21.715  0.1814E+02  0.9126E+01
    -21.701  0.1864E+02  0.9386E+01
    -21.687  0.1913E+02  0.9653E+01
    -21.673  0.1961E+02  0.9926E+01
    -21.659  0.2006E+02  0.1021E+02
    -21.645  0.2049E+02  0.1049E+02
    -21.631  0.2089E+02  0.1078E+02
    -21.617  0.2126E+02  0.1108E+02
    -21.603  0.2161E+02  0.1138E+02
    -21.589  0.2192E+02  0.1169E+02
    -21.575  0.2220E+02  0.1199E+02
    -21.561  0.2246E+02  0.1231E+02
    -21.548  0.2268E+02  0.1262E+02
    -21.534  0.2287E+02  0.1294E+02
    -21.520  0.2304E+02  0.1326E+02
    -21.506  0.2317E+02  0.1359E+02
    -21.492  0.2327E+02  0.1391E+02
    -21.478  0.2334E+02  0.1424E+02
    -21.464  0.2339E+02  0.1456E+02
    -21.450  0.2340E+02  0.1489E+02
    -21.436  0.2339E+02  0.1522E+02
    -21.422  0.2335E+02  0.1554E+02
    -21.408  0.2328E+02  0.1587E+02
    -21.394  0.2320E+02  0.1619E+02
    -21.380  0.2310E+02  0.1651E+02
    -21.366  0.2298E+02  0.1683E+02
    -21.352  0.2285E+02  0.1715E+02
    -21.338  0.2272E+02  0.1747E+02
    -21.324  0.2258E+02  0.1778E+02
    -21.311  0.2244E+02  0.1809E+02
    -21.297  0.2231E+02  0.1840E+02
    -21.283  0.2219E+02  0.1871E+02
    -21.269  0.2207E+02  0.1902E+02
    -21.255  0.2197E+02  0.1933E+02
    -21.241  0.2188E+02  0.1963E+02
    -21.227  0.2181E+02  0.1994E+02
    -21.213  0.2176E+02  0.2024E+02
    -21.199  0.2172E+02  0.2054E+02
    -21.185  0.2170E+02  0.2085E+02
    -21.171  0.2169E+02  0.2115E+02
    -21.157  0.2169E+02  0.2145E+02
    -21.143  0.2171E+02  0.2175E+02
    -21.129  0.2174E+02  0.2206E+02
    -21.115  0.2177E+02  0.2236E+02
    -21.101  0.2181E+02  0.2266E+02
    -21.088  0.2186E+02  0.2297E+02
    -21.074  0.2191E+02  0.2327E+02
    -21.060  0.2196E+02  0.2358E+02
    -21.046  0.2202E+02  0.2389E+02
    -21.032  0.2208E+02  0.2419E+02
    -21.018  0.2213E+02  0.2450E+02
    -21.004  0.2219E+02  0.2481E+02
    -20.990  0.2224E+02  0.2512E+02
    -20.976  0.2229E+02  0.2543E+02
    -20.962  0.2233E+02  0.2574E+02
    -20.948  0.2237E+02  0.2606E+02
    -20.934  0.2240E+02  0.2637E+02
    -20.920  0.2242E+02  0.2668E+02
    -20.906  0.2243E+02  0.2699E+02
    -20.892  0.2242E+02  0.2731E+02
    -20.878  0.2240E+02  0.2762E+02
    -20.864  0.2235E+02  0.2793E+02
    -20.851  0.2229E+02  0.2824E+02
    -20.837  0.2221E+02  0.2855E+02
    -20.823  0.2211E+02  0.2886E+02
    -20.809  0.2198E+02  0.2916E+02
    -20.795  0.2184E+02  0.2947E+02
    -20.781  0.2167E+02  0.2977E+02
    -20.767  0.2149E+02  0.3007E+02
    -20.753  0.2129E+02  0.3037E+02
    -20.739  0.2107E+02  0.3066E+02
    -20.725  0.2084E+02  0.3095E+02
    -20.711  0.2060E+02  0.3124E+02
    -20.697  0.2035E+02  0.3152E+02
    -20.683  0.2010E+02  0.3180E+02
    -20.669  0.1985E+02  0.3208E+02
    -20.655  0.1961E+02  0.3235E+02
    -20.641  0.1937E+02  0.3262E+02
    -20.628  0.1914E+02  0.3289E+02
    -20.614  0.1892E+02  0.3315E+02
    -20.600  0.1872E+02  0.3341E+02
    -20.586  0.1853E+02  0.3367E+02
    -20.572  0.1837E+02  0.3393E+02
    -20.558  0.1823E+02  0.3418E+02
    -20.544  0.1812E+02  0.3444E+02
    -20.530  0.1804E+02  0.3469E+02
    -20.516  0.1799E+02  0.3494E+02
    -20.502  0.1796E+02  0.3519E+02
    -20.488  0.1797E+02  0.3544E+02
    -20.474  0.1801E+02  0.3569E+02
    -20.460  0.1808E+02  0.3594E+02
    -20.446  0.1818E+02  0.3619E+02
    -20.432  0.1831E+02  0.3645E+02
    -20.418  0.1846E+02  0.3671E+02
    -20.404  0.1863E+02  0.3697E+02
    -20.391  0.1882E+02  0.3723E+02
    -20.377  0.1903E+02  0.3749E+02
    -20.363  0.1924E+02  0.3776E+02
    -20.349  0.1947E+02  0.3803E+02
    -20.335  0.1969E+02  0.3831E+02
    -20.321  0.1992E+02  0.3859E+02
    -20.307  0.2013E+02  0.3887E+02
    -20.293  0.2034E+02  0.3915E+02
    -20.279  0.2054E+02  0.3944E+02
    -20.265  0.2072E+02  0.3973E+02
    -20.251  0.2088E+02  0.4002E+02
    -20.237  0.2103E+02  0.4031E+02
    -20.223  0.2116E+02  0.4060E+02
    -20.209  0.2126E+02  0.4090E+02
    -20.195  0.2135E+02  0.4120E+02
    -20.181  0.2141E+02  0.4150E+02
    -20.168  0.2146E+02  0.4180E+02
    -20.154  0.2150E+02  0.4210E+02
    -20.140  0.2152E+02  0.4240E+02
    -20.126  0.2152E+02  0.4270E+02
    -20.112  0.2152E+02  0.4300E+02
    -20.098  0.2152E+02  0.4330E+02
    -20.084  0.2151E+02  0.4360E+02
    -20.070  0.2151E+02  0.4390E+02
    -20.056  0.2151E+02  0.4420E+02
    -20.042  0.2152E+02  0.4450E+02
    -20.028  0.2154E+02  0.4480E+02
    -20.014  0.2157E+02  0.4510E+02
    -20.000  0.2161E+02  0.4540E+02
    -19.986  0.2167E+02  0.4570E+02
    -19.972  0.2174E+02  0.4600E+02
    -19.958  0.2183E+02  0.4631E+02
    -19.944  0.2194E+02  0.4661E+02
    -19.931  0.2206E+02  0.4692E+02
    -19.917  0.2219E+02  0.4723E+02
    -19.903  0.2234E+02  0.4754E+02
    -19.889  0.2249E+02  0.4785E+02
    -19.875  0.2265E+02  0.4817E+02
    -19.861  0.2282E+02  0.4849E+02
    -19.847  0.2298E+02  0.4881E+02
    -19.833  0.2314E+02  0.4913E+02
    -19.819  0.2330E+02  0.4946E+02
    -19.805  0.2345E+02  0.4978E+02
    -19.791  0.2358E+02  0.5011E+02
    -19.777  0.2370E+02  0.5044E+02
    -19.763  0.2379E+02  0.5077E+02
    -19.749  0.2387E+02  0.5111E+02
    -19.735  0.2392E+02  0.5144E+02
    -19.721  0.2394E+02  0.5177E+02
    -19.708  0.2393E+02  0.5211E+02
    -19.694  0.2390E+02  0.5244E+02
    -19.680  0.2383E+02  0.5277E+02
    -19.666  0.2374E+02  0.5310E+02
    -19.652  0.2363E+02  0.5343E+02
    -19.638  0.2349E+02  0.5376E+02
    -19.624  0.2333E+02  0.5409E+02
    -19.610  0.2316E+02  0.5441E+02
    -19.596  0.2298E+02  0.5473E+02
    -19.582  0.2280E+02  0.5505E+02
    -19.568  0.2261E+02  0.5536E+02
    -19.554  0.2243E+02  0.5567E+02
    -19.540  0.2225E+02  0.5598E+02
    -19.526  0.2209E+02  0.5629E+02
    -19.512  0.2193E+02  0.5660E+02
    -19.498  0.2179E+02  0.5690E+02
    -19.484  0.2166E+02  0.5720E+02
    -19.471  0.2155E+02  0.5750E+02
    -19.457  0.2145E+02  0.5780E+02
    -19.443  0.2137E+02  0.5810E+02
    -19.429  0.2129E+02  0.5840E+02
    -19.415  0.2122E+02  0.5869E+02
    -19.401  0.2116E+02  0.5899E+02
    -19.387  0.2111E+02  0.5928E+02
    -19.373  0.2106E+02  0.5958E+02
    -19.359  0.2101E+02  0.5987E+02
    -19.345  0.2097E+02  0.6016E+02
    -19.331  0.2093E+02  0.6045E+02
    -19.317  0.2091E+02  0.6074E+02
    -19.303  0.2089E+02  0.6104E+02
    -19.289  0.2088E+02  0.6133E+02
    -19.275  0.2089E+02  0.6162E+02
    -19.261  0.2091E+02  0.6191E+02
    -19.248  0.2095E+02  0.6220E+02
    -19.234  0.2102E+02  0.6249E+02
    -19.220  0.2111E+02  0.6279E+02
    -19.206  0.2122E+02  0.6308E+02
    -19.192  0.2135E+02  0.6338E+02
    -19.178  0.2150E+02  0.6368E+02
    -19.164  0.2167E+02  0.6398E+02
    -19.150  0.2186E+02  0.6429E+02
    -19.136  0.2205E+02  0.6460E+02
    -19.122  0.2225E+02  0.6491E+02
    -19.108  0.2244E+02  0.6522E+02
    -19.094  0.2264E+02  0.6553E+02
    -19.080  0.2281E+02  0.6585E+02
    -19.066  0.2298E+02  0.6617E+02
    -19.052  0.2311E+02  0.6650E+02
    -19.038  0.2323E+02  0.6682E+02
    -19.024  0.2331E+02  0.6714E+02
    -19.011  0.2337E+02  0.6747E+02
    -18.997  0.2340E+02  0.6780E+02
    -18.983  0.2340E+02  0.6812E+02
    -18.969  0.2337E+02  0.6845E+02
    -18.955  0.2332E+02  0.6877E+02
    -18.941  0.2325E+02  0.6910E+02
    -18.927  0.2316E+02  0.6942E+02
    -18.913  0.2306E+02  0.6974E+02
    -18.899  0.2296E+02  0.7006E+02
    -18.885  0.2287E+02  0.7038E+02
    -18.871  0.2277E+02  0.7070E+02
    -18.857  0.2269E+02  0.7101E+02
    -18.843  0.2262E+02  0.7133E+02
    -18.829  0.2256E+02  0.7164E+02
    -18.815  0.2253E+02  0.7196E+02
    -18.801  0.2251E+02  0.7227E+02
    -18.788  0.2251E+02  0.7258E+02
    -18.774  0.2254E+02  0.7290E+02
    -18.760  0.2258E+02  0.7321E+02
    -18.746  0.2264E+02  0.7353E+02
    -18.732  0.2271E+02  0.7385E+02
    -18.718  0.2280E+02  0.7416E+02
    -18.704  0.2289E+02  0.7448E+02
    -18.690  0.2300E+02  0.7480E+02
    -18.676  0.2311E+02  0.7513E+02
    -18.662  0.2322E+02  0.7545E+02
    -18.648  0.2333E+02  0.7577E+02
    -18.634  0.2344E+02  0.7610E+02
    -18.620  0.2354E+02  0.7643E+02
    -18.606  0.2365E+02  0.7676E+02
    -18.592  0.2374E+02  0.7709E+02
    -18.578  0.2384E+02  0.7742E+02
    -18.564  0.2392E+02  0.7776E+02
    -18.551  0.2400E+02  0.7809E+02
    -18.537  0.2407E+02  0.7843E+02
    -18.523  0.2414E+02  0.7876E+02
    -18.509  0.2420E+02  0.7910E+02
    -18.495  0.2425E+02  0.7944E+02
    -18.481  0.2430E+02  0.7978E+02
    -18.467  0.2435E+02  0.8012E+02
    -18.453  0.2438E+02  0.8046E+02
    -18.439  0.2441E+02  0.8080E+02
    -18.425  0.2444E+02  0.8114E+02
    -18.411  0.2445E+02  0.8148E+02
    -18.397  0.2446E+02  0.8182E+02
    -18.383  0.2447E+02  0.8216E+02
    -18.369  0.2446E+02  0.8250E+02
    -18.355  0.2445E+02  0.8284E+02
    -18.341  0.2443E+02  0.8318E+02
    -18.328  0.2440E+02  0.8352E+02
    -18.314  0.2437E+02  0.8386E+02
    -18.300  0.2433E+02  0.8420E+02
    -18.286  0.2428E+02  0.8454E+02
    -18.272  0.2424E+02  0.8488E+02
    -18.258  0.2419E+02  0.8521E+02
    -18.244  0.2414E+02  0.8555E+02
    -18.230  0.2409E+02  0.8589E+02
    -18.216  0.2404E+02  0.8622E+02
    -18.202  0.2400E+02  0.8656E+02
    -18.188  0.2397E+02  0.8689E+02
    -18.174  0.2394E+02  0.8722E+02
    -18.160  0.2392E+02  0.8756E+02
    -18.146  0.2392E+02  0.8789E+02
    -18.132  0.2392E+02  0.8822E+02
    -18.118  0.2394E+02  0.8856E+02
    -18.104  0.2396E+02  0.8889E+02
    -18.091  0.2400E+02  0.8923E+02
    -18.077  0.2405E+02  0.8956E+02
    -18.063  0.2411E+02  0.8990E+02
    -18.049  0.2418E+02  0.9023E+02
    -18.035  0.2427E+02  0.9057E+02
    -18.021  0.2436E+02  0.9091E+02
    -18.007  0.2446E+02  0.9125E+02
    -17.993  0.2458E+02  0.9160E+02
    -17.979  0.2470E+02  0.9194E+02
    -17.965  0.2483E+02  0.9229E+02
    -17.951  0.2497E+02  0.9263E+02
    -17.937  0.2511E+02  0.9298E+02
    -17.923  0.2526E+02  0.9334E+02
    -17.909  0.2542E+02  0.9369E+02
    -17.895  0.2558E+02  0.9405E+02
    -17.881  0.2574E+02  0.9441E+02
    -17.868  0.2589E+02  0.9477E+02
    -17.854  0.2604E+02  0.9513E+02
    -17.840  0.2618E+02  0.9550E+02
    -17.826  0.2630E+02  0.9586E+02
    -17.812  0.2640E+02  0.9623E+02
    -17.798  0.2649E+02  0.9660E+02
    -17.784  0.2654E+02  0.9697E+02
    -17.770  0.2657E+02  0.9734E+02
    -17.756  0.2657E+02  0.9771E+02
    -17.742  0.2654E+02  0.9808E+02
    -17.728  0.2648E+02  0.9845E+02
    -17.714  0.2639E+02  0.9882E+02
    -17.700  0.2627E+02  0.9918E+02
    -17.686  0.2613E+02  0.9955E+02
    -17.672  0.2597E+02  0.9991E+02
    -17.658  0.2580E+02  0.1003E+03
    -17.644  0.2562E+02  0.1006E+03
    -17.631  0.2544E+02  0.1010E+03
    -17.617  0.2525E+02  0.1013E+03
    -17.603  0.2508E+02  0.1017E+03
    -17.589  0.2491E+02  0.1020E+03
    -17.575  0.2476E+02  0.1024E+03
    -17.561  0.2463E+02  0.1027E+03
    -17.547  0.2451E+02  0.1031E+03
    -17.533  0.2442E+02  0.1034E+03
    -17.519  0.2435E+02  0.1037E+03
    -17.505  0.2430E+02  0.1041E+03
    -17.491  0.2426E+02  0.1044E+03
    -17.477  0.2425E+02  0.1048E+03
    -17.463  0.2424E+02  0.1051E+03
    -17.449  0.2425E+02  0.1054E+03
    -17.435  0.2427E+02  0.1058E+03
    -17.421  0.2429E+02  0.1061E+03
    -17.408  0.2431E+02  0.1064E+03
    -17.394  0.2433E+02  0.1068E+03
    -17.380  0.2434E+02  0.1071E+03
    -17.366  0.2435E+02  0.1075E+03
    -17.352  0.2435E+02  0.1078E+03
    -17.338  0.2435E+02  0.1081E+03
    -17.324  0.2433E+02  0.1085E+03
    -17.310  0.2430E+02  0.1088E+03
    -17.296  0.2426E+02  0.1092E+03
    -17.282  0.2422E+02  0.1095E+03
    -17.268  0.2417E+02  0.1098E+03
    -17.254  0.2411E+02  0.1102E+03
    -17.240  0.2405E+02  0.1105E+03
    -17.226  0.2398E+02  0.1108E+03
    -17.212  0.2391E+02  0.1112E+03
    -17.198  0.2384E+02  0.1115E+03
    -17.184  0.2377E+02  0.1118E+03
    -17.171  0.2370E+02  0.1122E+03
    -17.157  0.2362E+02  0.1125E+03
    -17.143  0.2355E+02  0.1128E+03
    -17.129  0.2347E+02  0.1132E+03
    -17.115  0.2338E+02  0.1135E+03
    -17.101  0.2330E+02  0.1138E+03
    -17.087  0.2320E+02  0.1141E+03
    -17.073  0.2310E+02  0.1144E+03
    -17.059  0.2299E+02  0.1148E+03
    -17.045  0.2286E+02  0.1151E+03
    -17.031  0.2273E+02  0.1154E+03
    -17.017  0.2258E+02  0.1157E+03
    -17.003  0.2243E+02  0.1160E+03
    -16.989  0.2226E+02  0.1163E+03
    -16.975  0.2208E+02  0.1166E+03
    -16.961  0.2189E+02  0.1170E+03
    -16.948  0.2170E+02  0.1173E+03
    -16.934  0.2150E+02  0.1176E+03
    -16.920  0.2131E+02  0.1179E+03
    -16.906  0.2111E+02  0.1181E+03
    -16.892  0.2092E+02  0.1184E+03
    -16.878  0.2074E+02  0.1187E+03
    -16.864  0.2057E+02  0.1190E+03
    -16.850  0.2042E+02  0.1193E+03
    -16.836  0.2027E+02  0.1196E+03
    -16.822  0.2015E+02  0.1199E+03
    -16.808  0.2004E+02  0.1201E+03
    -16.794  0.1995E+02  0.1204E+03
    -16.780  0.1988E+02  0.1207E+03
    -16.766  0.1982E+02  0.1210E+03
    -16.752  0.1978E+02  0.1212E+03
    -16.738  0.1975E+02  0.1215E+03
    -16.724  0.1973E+02  0.1218E+03
    -16.711  0.1972E+02  0.1221E+03
    -16.697  0.1971E+02  0.1223E+03
    -16.683  0.1970E+02  0.1226E+03
    -16.669  0.1970E+02  0.1229E+03
    -16.655  0.1969E+02  0.1232E+03
    -16.641  0.1968E+02  0.1234E+03
    -16.627  0.1967E+02  0.1237E+03
    -16.613  0.1965E+02  0.1240E+03
    -16.599  0.1963E+02  0.1243E+03
    -16.585  0.1961E+02  0.1245E+03
    -16.571  0.1958E+02  0.1248E+03
    -16.557  0.1956E+02  0.1251E+03
    -16.543  0.1953E+02  0.1254E+03
    -16.529  0.1951E+02  0.1256E+03
    -16.515  0.1950E+02  0.1259E+03
    -16.501  0.1949E+02  0.1262E+03
    -16.488  0.1948E+02  0.1264E+03
    -16.474  0.1949E+02  0.1267E+03
    -16.460  0.1950E+02  0.1270E+03
    -16.446  0.1952E+02  0.1273E+03
    -16.432  0.1956E+02  0.1275E+03
    -16.418  0.1960E+02  0.1278E+03
    -16.404  0.1965E+02  0.1281E+03
    -16.390  0.1970E+02  0.1284E+03
    -16.376  0.1976E+02  0.1286E+03
    -16.362  0.1982E+02  0.1289E+03
    -16.348  0.1988E+02  0.1292E+03
    -16.334  0.1994E+02  0.1295E+03
    -16.320  0.2000E+02  0.1297E+03
    -16.306  0.2005E+02  0.1300E+03
    -16.292  0.2010E+02  0.1303E+03
    -16.278  0.2014E+02  0.1306E+03
    -16.264  0.2018E+02  0.1309E+03
    -16.251  0.2020E+02  0.1311E+03
    -16.237  0.2023E+02  0.1314E+03
    -16.223  0.2024E+02  0.1317E+03
    -16.209  0.2025E+02  0.1320E+03
    -16.195  0.2026E+02  0.1323E+03
    -16.181  0.2027E+02  0.1326E+03
    -16.167  0.2028E+02  0.1328E+03
    -16.153  0.2029E+02  0.1331E+03
    -16.139  0.2030E+02  0.1334E+03
    -16.125  0.2032E+02  0.1337E+03
    -16.111  0.2034E+02  0.1340E+03
    -16.097  0.2037E+02  0.1343E+03
    -16.083  0.2041E+02  0.1345E+03
    -16.069  0.2047E+02  0.1348E+03
    -16.055  0.2053E+02  0.1351E+03
    -16.041  0.2060E+02  0.1354E+03
    -16.028  0.2069E+02  0.1357E+03
    -16.014  0.2079E+02  0.1360E+03
    -16.000  0.2090E+02  0.1363E+03
    -15.986  0.2103E+02  0.1366E+03
    -15.972  0.2116E+02  0.1369E+03
    -15.958  0.2131E+02  0.1372E+03
    -15.944  0.2147E+02  0.1375E+03
    -15.930  0.2165E+02  0.1378E+03
    -15.916  0.2182E+02  0.1381E+03
    -15.902  0.2201E+02  0.1384E+03
    -15.888  0.2220E+02  0.1387E+03
    -15.874  0.2239E+02  0.1390E+03
    -15.860  0.2258E+02  0.1393E+03
    -15.846  0.2277E+02  0.1396E+03
    -15.832  0.2296E+02  0.1399E+03
    -15.818  0.2314E+02  0.1403E+03
    -15.804  0.2331E+02  0.1406E+03
    -15.791  0.2347E+02  0.1409E+03
    -15.777  0.2362E+02  0.1412E+03
    -15.763  0.2376E+02  0.1416E+03
    -15.749  0.2389E+02  0.1419E+03
    -15.735  0.2401E+02  0.1422E+03
    -15.721  0.2411E+02  0.1426E+03
    -15.707  0.2421E+02  0.1429E+03
    -15.693  0.2430E+02  0.1433E+03
    -15.679  0.2439E+02  0.1436E+03
    -15.665  0.2446E+02  0.1439E+03
    -15.651  0.2453E+02  0.1443E+03
    -15.637  0.2459E+02  0.1446E+03
    -15.623  0.2464E+02  0.1450E+03
    -15.609  0.2469E+02  0.1453E+03
    -15.595  0.2472E+02  0.1457E+03
    -15.581  0.2474E+02  0.1460E+03
    -15.568  0.2475E+02  0.1463E+03
    -15.554  0.2475E+02  0.1467E+03
    -15.540  0.2474E+02  0.1470E+03
    -15.526  0.2471E+02  0.1474E+03
    -15.512  0.2467E+02  0.1477E+03
    -15.498  0.2462E+02  0.1481E+03
    -15.484  0.2456E+02  0.1484E+03
    -15.470  0.2449E+02  0.1487E+03
    -15.456  0.2441E+02  0.1491E+03
    -15.442  0.2433E+02  0.1494E+03
    -15.428  0.2425E+02  0.1498E+03
    -15.414  0.2416E+02  0.1501E+03
    -15.400  0.2408E+02  0.1504E+03
    -15.386  0.2401E+02  0.1508E+03
    -15.372  0.2394E+02  0.1511E+03
    -15.358  0.2389E+02  0.1514E+03
    -15.344  0.2385E+02  0.1518E+03
    -15.331  0.2382E+02  0.1521E+03
    -15.317  0.2382E+02  0.1524E+03
    -15.303  0.2383E+02  0.1528E+03
    -15.289  0.2386E+02  0.1531E+03
    -15.275  0.2390E+02  0.1534E+03
    -15.261  0.2397E+02  0.1538E+03
    -15.247  0.2406E+02  0.1541E+03
    -15.233  0.2416E+02  0.1544E+03
    -15.219  0.2427E+02  0.1548E+03
    -15.205  0.2440E+02  0.1551E+03
    -15.191  0.2454E+02  0.1555E+03
    -15.177  0.2468E+02  0.1558E+03
    -15.163  0.2483E+02  0.1562E+03
    -15.149  0.2498E+02  0.1565E+03
    -15.135  0.2512E+02  0.1568E+03
    -15.121  0.2525E+02  0.1572E+03
    -15.108  0.2536E+02  0.1576E+03
    -15.094  0.2546E+02  0.1579E+03
    -15.080  0.2553E+02  0.1583E+03
    -15.066  0.2557E+02  0.1586E+03
    -15.052  0.2558E+02  0.1590E+03
    -15.038  0.2556E+02  0.1593E+03
    -15.024  0.2549E+02  0.1597E+03
    -15.010  0.2540E+02  0.1600E+03
    -14.996  0.2526E+02  0.1604E+03
    -14.982  0.2509E+02  0.1607E+03
    -14.968  0.2489E+02  0.1611E+03
    -14.954  0.2465E+02  0.1614E+03
    -14.940  0.2440E+02  0.1618E+03
    -14.926  0.2412E+02  0.1621E+03
    -14.912  0.2384E+02  0.1624E+03
    -14.898  0.2355E+02  0.1628E+03
    -14.884  0.2325E+02  0.1631E+03
    -14.871  0.2297E+02  0.1634E+03
    -14.857  0.2269E+02  0.1637E+03
    -14.843  0.2243E+02  0.1640E+03
    -14.829  0.2220E+02  0.1644E+03
    -14.815  0.2199E+02  0.1647E+03
    -14.801  0.2180E+02  0.1650E+03
    -14.787  0.2165E+02  0.1653E+03
    -14.773  0.2153E+02  0.1656E+03
    -14.759  0.2143E+02  0.1659E+03
    -14.745  0.2137E+02  0.1662E+03
    -14.731  0.2134E+02  0.1665E+03
    -14.717  0.2133E+02  0.1668E+03
    -14.703  0.2136E+02  0.1671E+03
    -14.689  0.2140E+02  0.1674E+03
    -14.675  0.2148E+02  0.1677E+03
    -14.661  0.2158E+02  0.1680E+03
    -14.648  0.2170E+02  0.1683E+03
    -14.634  0.2184E+02  0.1686E+03
    -14.620  0.2200E+02  0.1689E+03
    -14.606  0.2219E+02  0.1692E+03
    -14.592  0.2239E+02  0.1695E+03
    -14.578  0.2261E+02  0.1698E+03
    -14.564  0.2284E+02  0.1701E+03
    -14.550  0.2309E+02  0.1704E+03
    -14.536  0.2335E+02  0.1708E+03
    -14.522  0.2361E+02  0.1711E+03
    -14.508  0.2387E+02  0.1714E+03
    -14.494  0.2413E+02  0.1718E+03
    -14.480  0.2439E+02  0.1721E+03
    -14.466  0.2464E+02  0.1725E+03
    -14.452  0.2487E+02  0.1728E+03
    -14.438  0.2508E+02  0.1731E+03
    -14.424  0.2527E+02  0.1735E+03
    -14.411  0.2544E+02  0.1739E+03
    -14.397  0.2558E+02  0.1742E+03
    -14.383  0.2569E+02  0.1746E+03
    -14.369  0.2578E+02  0.1749E+03
    -14.355  0.2583E+02  0.1753E+03
    -14.341  0.2585E+02  0.1757E+03
    -14.327  0.2585E+02  0.1760E+03
    -14.313  0.2582E+02  0.1764E+03
    -14.299  0.2577E+02  0.1767E+03
    -14.285  0.2570E+02  0.1771E+03
    -14.271  0.2562E+02  0.1774E+03
    -14.257  0.2552E+02  0.1778E+03
    -14.243  0.2540E+02  0.1782E+03
    -14.229  0.2528E+02  0.1785E+03
    -14.215  0.2516E+02  0.1789E+03
    -14.201  0.2503E+02  0.1792E+03
    -14.188  0.2490E+02  0.1796E+03
    -14.174  0.2477E+02  0.1799E+03
    -14.160  0.2465E+02  0.1802E+03
    -14.146  0.2452E+02  0.1806E+03
    -14.132  0.2441E+02  0.1809E+03
    -14.118  0.2429E+02  0.1813E+03
    -14.104  0.2418E+02  0.1816E+03
    -14.090  0.2408E+02  0.1819E+03
    -14.076  0.2398E+02  0.1823E+03
    -14.062  0.2388E+02  0.1826E+03
    -14.048  0.2378E+02  0.1829E+03
    -14.034  0.2368E+02  0.1833E+03
    -14.020  0.2359E+02  0.1836E+03
    -14.006  0.2349E+02  0.1839E+03
    -13.992  0.2339E+02  0.1842E+03
    -13.978  0.2330E+02  0.1846E+03
    -13.964  0.2320E+02  0.1849E+03
    -13.951  0.2310E+02  0.1852E+03
    -13.937  0.2301E+02  0.1855E+03
    -13.923  0.2292E+02  0.1859E+03
    -13.909  0.2283E+02  0.1862E+03
    -13.895  0.2275E+02  0.1865E+03
    -13.881  0.2267E+02  0.1868E+03
    -13.867  0.2260E+02  0.1871E+03
    -13.853  0.2255E+02  0.1874E+03
    -13.839  0.2250E+02  0.1878E+03
    -13.825  0.2246E+02  0.1881E+03
    -13.811  0.2244E+02  0.1884E+03
    -13.797  0.2243E+02  0.1887E+03
    -13.783  0.2243E+02  0.1890E+03
    -13.769  0.2245E+02  0.1893E+03
    -13.755  0.2247E+02  0.1896E+03
    -13.741  0.2251E+02  0.1899E+03
    -13.728  0.2256E+02  0.1903E+03
    -13.714  0.2262E+02  0.1906E+03
    -13.700  0.2269E+02  0.1909E+03
    -13.686  0.2277E+02  0.1912E+03
    -13.672  0.2286E+02  0.1915E+03
    -13.658  0.2296E+02  0.1918E+03
    -13.644  0.2306E+02  0.1922E+03
    -13.630  0.2317E+02  0.1925E+03
    -13.616  0.2328E+02  0.1928E+03
    -13.602  0.2339E+02  0.1931E+03
    -13.588  0.2350E+02  0.1935E+03
    -13.574  0.2361E+02  0.1938E+03
    -13.560  0.2371E+02  0.1941E+03
    -13.546  0.2380E+02  0.1945E+03
    -13.532  0.2389E+02  0.1948E+03
    -13.518  0.2395E+02  0.1951E+03
    -13.504  0.2400E+02  0.1955E+03
    -13.491  0.2403E+02  0.1958E+03
    -13.477  0.2403E+02  0.1961E+03
    -13.463  0.2401E+02  0.1965E+03
    -13.449  0.2397E+02  0.1968E+03
    -13.435  0.2390E+02  0.1971E+03
    -13.421  0.2380E+02  0.1975E+03
    -13.407  0.2369E+02  0.1978E+03
    -13.393  0.2355E+02  0.1981E+03
    -13.379  0.2340E+02  0.1984E+03
    -13.365  0.2324E+02  0.1988E+03
    -13.351  0.2308E+02  0.1991E+03
    -13.337  0.2291E+02  0.1994E+03
    -13.323  0.2275E+02  0.1997E+03
    -13.309  0.2260E+02  0.2000E+03
    -13.295  0.2246E+02  0.2004E+03
    -13.281  0.2234E+02  0.2007E+03
    -13.268  0.2225E+02  0.2010E+03
    -13.254  0.2218E+02  0.2013E+03
    -13.240  0.2214E+02  0.2016E+03
    -13.226  0.2212E+02  0.2019E+03
    -13.212  0.2213E+02  0.2022E+03
    -13.198  0.2217E+02  0.2025E+03
    -13.184  0.2222E+02  0.2028E+03
    -13.170  0.2230E+02  0.2031E+03
    -13.156  0.2238E+02  0.2035E+03
    -13.142  0.2248E+02  0.2038E+03
    -13.128  0.2259E+02  0.2041E+03
    -13.114  0.2270E+02  0.2044E+03
    -13.100  0.2281E+02  0.2047E+03
    -13.086  0.2291E+02  0.2050E+03
    -13.072  0.2300E+02  0.2054E+03
    -13.058  0.2309E+02  0.2057E+03
    -13.044  0.2316E+02  0.2060E+03
    -13.031  0.2322E+02  0.2063E+03
    -13.017  0.2326E+02  0.2067E+03
    -13.003  0.2330E+02  0.2070E+03
    -12.989  0.2332E+02  0.2073E+03
    -12.975  0.2333E+02  0.2076E+03
    -12.961  0.2333E+02  0.2080E+03
    -12.947  0.2332E+02  0.2083E+03
    -12.933  0.2331E+02  0.2086E+03
    -12.919  0.2329E+02  0.2089E+03
    -12.905  0.2327E+02  0.2093E+03
    -12.891  0.2326E+02  0.2096E+03
    -12.877  0.2324E+02  0.2099E+03
    -12.863  0.2323E+02  0.2102E+03
    -12.849  0.2323E+02  0.2105E+03
    -12.835  0.2323E+02  0.2109E+03
    -12.821  0.2324E+02  0.2112E+03
    -12.808  0.2325E+02  0.2115E+03
    -12.794  0.2328E+02  0.2118E+03
    -12.780  0.2331E+02  0.2122E+03
    -12.766  0.2335E+02  0.2125E+03
    -12.752  0.2340E+02  0.2128E+03