 192 192   0   0
  0.2619380E+02  0.2556000E-08  0.1967610E-08  0.1000000E-08  0.5000000E-15
  1.000000000000000E-004
  CAR 
 unknown system                          
      6.04087168    -25.58876387 2000     -0.88723624      1.00000000
    -25.589  0.0000E+00  0.0000E+00
    -25.573  0.0000E+00  0.0000E+00
    -25.557  0.0000E+00  0.0000E+00
    -25.541  0.0000E+00  0.0000E+00
    -25.525  0.0000E+00  0.0000E+00
    -25.510  0.0000E+00  0.0000E+00
    -25.494  0.0000E+00  0.0000E+00
    -25.478  0.0000E+00  0.0000E+00
    -25.462  0.0000E+00  0.0000E+00
    -25.446  0.0000E+00  0.0000E+00
    -25.431  0.0000E+00  0.0000E+00
    -25.415  0.0000E+00  0.0000E+00
    -25.399  0.0000E+00  0.0000E+00
    -25.383  0.0000E+00  0.0000E+00
    -25.367  0.0000E+00  0.0000E+00
    -25.351  0.0000E+00  0.0000E+00
    -25.336  0.0000E+00  0.0000E+00
    -25.320  0.0000E+00  0.0000E+00
    -25.304  0.0000E+00  0.0000E+00
    -25.288  0.0000E+00  0.0000E+00
    -25.272  0.0000E+00  0.0000E+00
    -25.256  0.0000E+00  0.0000E+00
    -25.241  0.0000E+00  0.0000E+00
    -25.225  0.0000E+00  0.0000E+00
    -25.209  0.0000E+00  0.0000E+00
    -25.193  0.0000E+00  0.0000E+00
    -25.177  0.0000E+00  0.0000E+00
    -25.162  0.0000E+00  0.0000E+00
    -25.146  0.0000E+00  0.0000E+00
    -25.130  0.0000E+00  0.0000E+00
    -25.114  0.0000E+00  0.0000E+00
    -25.098  0.0000E+00  0.0000E+00
    -25.082  0.0000E+00  0.0000E+00
    -25.067  0.0000E+00  0.0000E+00
    -25.051  0.0000E+00  0.0000E+00
    -25.035  0.0000E+00  0.0000E+00
    -25.019  0.0000E+00  0.0000E+00
    -25.003  0.0000E+00  0.0000E+00
    -24.988  0.0000E+00  0.0000E+00
    -24.972  0.0000E+00  0.0000E+00
    -24.956  0.0000E+00  0.0000E+00
    -24.940  0.0000E+00  0.0000E+00
    -24.924  0.0000E+00  0.0000E+00
    -24.908  0.0000E+00  0.0000E+00
    -24.893  0.0000E+00  0.0000E+00
    -24.877  0.0000E+00  0.0000E+00
    -24.861  0.0000E+00  0.0000E+00
    -24.845  0.0000E+00  0.0000E+00
    -24.829  0.0000E+00  0.0000E+00
    -24.813  0.0000E+00  0.0000E+00
    -24.798  0.0000E+00  0.0000E+00
    -24.782  0.0000E+00  0.0000E+00
    -24.766  0.7017E-14  0.1110E-15
    -24.750  0.7017E-14  0.2220E-15
    -24.734  0.2105E-13  0.5551E-15
    -24.719  0.4912E-13  0.1332E-14
    -24.703  0.1263E-12  0.3331E-14
    -24.687  0.3087E-12  0.8216E-14
    -24.671  0.7227E-12  0.1965E-13
    -24.655  0.1705E-11  0.4663E-13
    -24.639  0.3964E-11  0.1094E-12
    -24.624  0.9087E-11  0.2531E-12
    -24.608  0.2059E-10  0.5789E-12
    -24.592  0.4607E-10  0.1308E-11
    -24.576  0.1018E-09  0.2919E-11
    -24.560  0.2221E-09  0.6433E-11
    -24.544  0.4787E-09  0.1401E-10
    -24.529  0.1019E-08  0.3013E-10
    -24.513  0.2141E-08  0.6401E-10
    -24.497  0.4445E-08  0.1343E-09
    -24.481  0.9112E-08  0.2785E-09
    -24.465  0.1845E-07  0.5704E-09
    -24.450  0.3688E-07  0.1154E-08
    -24.434  0.7281E-07  0.2306E-08
    -24.418  0.1420E-06  0.4553E-08
    -24.402  0.2734E-06  0.8879E-08
    -24.386  0.5199E-06  0.1711E-07
    -24.370  0.9765E-06  0.3256E-07
    -24.355  0.1811E-05  0.6121E-07
    -24.339  0.3318E-05  0.1137E-06
    -24.323  0.6001E-05  0.2087E-06
    -24.307  0.1072E-04  0.3783E-06
    -24.291  0.1891E-04  0.6776E-06
    -24.275  0.3296E-04  0.1199E-05
    -24.260  0.5671E-04  0.2096E-05
    -24.244  0.9636E-04  0.3621E-05
    -24.228  0.1617E-03  0.6180E-05
    -24.212  0.2680E-03  0.1042E-04
    -24.196  0.4386E-03  0.1736E-04
    -24.181  0.7090E-03  0.2858E-04
    -24.165  0.1132E-02  0.4649E-04
    -24.149  0.1784E-02  0.7472E-04
    -24.133  0.2778E-02  0.1187E-03
    -24.117  0.4271E-02  0.1863E-03
    -24.101  0.6485E-02  0.2889E-03
    -24.086  0.9725E-02  0.4427E-03
    -24.070  0.1440E-01  0.6706E-03
    -24.054  0.2106E-01  0.1004E-02
    -24.038  0.3042E-01  0.1485E-02
    -24.022  0.4339E-01  0.2172E-02
    -24.006  0.6113E-01  0.3139E-02
    -23.991  0.8504E-01  0.4485E-02
    -23.975  0.1168E+00  0.6333E-02
    -23.959  0.1585E+00  0.8841E-02
    -23.943  0.2124E+00  0.1220E-01
    -23.927  0.2811E+00  0.1665E-01
    -23.912  0.3673E+00  0.2246E-01
    -23.896  0.4740E+00  0.2996E-01
    -23.880  0.6042E+00  0.3952E-01
    -23.864  0.7605E+00  0.5156E-01
    -23.848  0.9454E+00  0.6651E-01
    -23.832  0.1161E+01  0.8488E-01
    -23.817  0.1407E+01  0.1071E+00
    -23.801  0.1685E+01  0.1338E+00
    -23.785  0.1992E+01  0.1653E+00
    -23.769  0.2326E+01  0.2021E+00
    -23.753  0.2683E+01  0.2446E+00
    -23.738  0.3055E+01  0.2929E+00
    -23.722  0.3436E+01  0.3473E+00
    -23.706  0.3817E+01  0.4077E+00
    -23.690  0.4187E+01  0.4739E+00
    -23.674  0.4536E+01  0.5457E+00
    -23.658  0.4853E+01  0.6225E+00
    -23.643  0.5127E+01  0.7036E+00
    -23.627  0.5350E+01  0.7883E+00
    -23.611  0.5513E+01  0.8755E+00
    -23.595  0.5610E+01  0.9643E+00
    -23.579  0.5639E+01  0.1053E+01
    -23.563  0.5596E+01  0.1142E+01
    -23.548  0.5486E+01  0.1229E+01
    -23.532  0.5310E+01  0.1313E+01
    -23.516  0.5076E+01  0.1393E+01
    -23.500  0.4793E+01  0.1469E+01
    -23.484  0.4469E+01  0.1540E+01
    -23.469  0.4115E+01  0.1605E+01
    -23.453  0.3742E+01  0.1664E+01
    -23.437  0.3360E+01  0.1717E+01
    -23.421  0.2980E+01  0.1764E+01
    -23.405  0.2610E+01  0.1806E+01
    -23.389  0.2258E+01  0.1841E+01
    -23.374  0.1929E+01  0.1872E+01
    -23.358  0.1627E+01  0.1898E+01
    -23.342  0.1356E+01  0.1919E+01
    -23.326  0.1115E+01  0.1937E+01
    -23.310  0.9062E+00  0.1951E+01
    -23.294  0.7272E+00  0.1963E+01
    -23.279  0.5763E+00  0.1972E+01
    -23.263  0.4511E+00  0.1979E+01
    -23.247  0.3487E+00  0.1984E+01
    -23.231  0.2663E+00  0.1989E+01
    -23.215  0.2009E+00  0.1992E+01
    -23.200  0.1498E+00  0.1994E+01
    -23.184  0.1106E+00  0.1996E+01
    -23.168  0.8104E-01  0.1997E+01
    -23.152  0.5924E-01  0.1998E+01
    -23.136  0.4372E-01  0.1999E+01
    -23.120  0.3328E-01  0.1999E+01
    -23.105  0.2709E-01  0.2000E+01
    -23.089  0.2463E-01  0.2000E+01
    -23.073  0.2569E-01  0.2001E+01
    -23.057  0.3038E-01  0.2001E+01
    -23.041  0.3914E-01  0.2002E+01
    -23.025  0.5275E-01  0.2002E+01
    -23.010  0.7233E-01  0.2004E+01
    -22.994  0.9941E-01  0.2005E+01
    -22.978  0.1359E+00  0.2007E+01
    -22.962  0.1841E+00  0.2010E+01
    -22.946  0.2468E+00  0.2014E+01
    -22.931  0.3272E+00  0.2019E+01
    -22.915  0.4287E+00  0.2026E+01
    -22.899  0.5552E+00  0.2035E+01
    -22.883  0.7108E+00  0.2046E+01
    -22.867  0.8993E+00  0.2060E+01
    -22.851  0.1125E+01  0.2078E+01
    -22.836  0.1391E+01  0.2100E+01
    -22.820  0.1700E+01  0.2127E+01
    -22.804  0.2055E+01  0.2160E+01
    -22.788  0.2456E+01  0.2198E+01
    -22.772  0.2903E+01  0.2244E+01
    -22.756  0.3394E+01  0.2298E+01
    -22.741  0.3924E+01  0.2360E+01
    -22.725  0.4489E+01  0.2431E+01
    -22.709  0.5080E+01  0.2512E+01
    -22.693  0.5688E+01  0.2602E+01
    -22.677  0.6303E+01  0.2701E+01
    -22.662  0.6913E+01  0.2811E+01
    -22.646  0.7504E+01  0.2929E+01
    -22.630  0.8064E+01  0.3057E+01
    -22.614  0.8578E+01  0.3193E+01
    -22.598  0.9034E+01  0.3336E+01
    -22.582  0.9421E+01  0.3485E+01
    -22.567  0.9728E+01  0.3639E+01
    -22.551  0.9947E+01  0.3796E+01
    -22.535  0.1007E+02  0.3955E+01
    -22.519  0.1010E+02  0.4115E+01
    -22.503  0.1003E+02  0.4274E+01
    -22.488  0.9861E+01  0.4430E+01
    -22.472  0.9603E+01  0.4582E+01
    -22.456  0.9259E+01  0.4728E+01
    -22.440  0.8840E+01  0.4868E+01
    -22.424  0.8357E+01  0.5000E+01
    -22.408  0.7821E+01  0.5124E+01
    -22.393  0.7246E+01  0.5239E+01
    -22.377  0.6645E+01  0.5344E+01
    -22.361  0.6032E+01  0.5439E+01
    -22.345  0.5418E+01  0.5525E+01
    -22.329  0.4816E+01  0.5601E+01
    -22.313  0.4235E+01  0.5668E+01
    -22.298  0.3685E+01  0.5727E+01
    -22.282  0.3172E+01  0.5777E+01
    -22.266  0.2700E+01  0.5820E+01
    -22.250  0.2273E+01  0.5856E+01
    -22.234  0.1892E+01  0.5885E+01
    -22.219  0.1558E+01  0.5910E+01
    -22.203  0.1268E+01  0.5930E+01
    -22.187  0.1020E+01  0.5946E+01
    -22.171  0.8116E+00  0.5959E+01
    -22.155  0.6381E+00  0.5969E+01
    -22.139  0.4959E+00  0.5977E+01
    -22.124  0.3809E+00  0.5983E+01
    -22.108  0.2891E+00  0.5988E+01
    -22.092  0.2168E+00  0.5991E+01
    -22.076  0.1607E+00  0.5994E+01
    -22.060  0.1177E+00  0.5996E+01
    -22.044  0.8517E-01  0.5997E+01
    -22.029  0.6091E-01  0.5998E+01
    -22.013  0.4307E-01  0.5999E+01
    -21.997  0.3013E-01  0.5999E+01
    -21.981  0.2091E-01  0.5999E+01
    -21.965  0.1446E-01  0.6000E+01
    -21.950  0.1009E-01  0.6000E+01
    -21.934  0.7292E-02  0.6000E+01
    -21.918  0.5713E-02  0.6000E+01
    -21.902  0.5153E-02  0.6000E+01
    -21.886  0.5535E-02  0.6000E+01
    -21.870  0.6906E-02  0.6000E+01
    -21.855  0.9437E-02  0.6000E+01
    -21.839  0.1344E-01  0.6001E+01
    -21.823  0.1936E-01  0.6001E+01
    -21.807  0.2785E-01  0.6001E+01
    -21.791  0.3973E-01  0.6002E+01
    -21.775  0.5610E-01  0.6003E+01
    -21.760  0.7829E-01  0.6004E+01
    -21.744  0.1079E+00  0.6006E+01
    -21.728  0.1470E+00  0.6008E+01
    -21.712  0.1978E+00  0.6011E+01
    -21.696  0.2628E+00  0.6015E+01
    -21.681  0.3449E+00  0.6021E+01
    -21.665  0.4471E+00  0.6028E+01
    -21.649  0.5725E+00  0.6037E+01
    -21.633  0.7243E+00  0.6048E+01
    -21.617  0.9052E+00  0.6063E+01
    -21.601  0.1118E+01  0.6080E+01
    -21.586  0.1363E+01  0.6102E+01
    -21.570  0.1644E+01  0.6128E+01
    -21.554  0.1958E+01  0.6159E+01
    -21.538  0.2306E+01  0.6196E+01
    -21.522  0.2684E+01  0.6238E+01
    -21.506  0.3089E+01  0.6287E+01
    -21.491  0.3515E+01  0.6342E+01
    -21.475  0.3957E+01  0.6405E+01
    -21.459  0.4409E+01  0.6475E+01
    -21.443  0.4861E+01  0.6552E+01
    -21.427  0.5307E+01  0.6636E+01
    -21.412  0.5741E+01  0.6727E+01
    -21.396  0.6155E+01  0.6824E+01
    -21.380  0.6545E+01  0.6928E+01
    -21.364  0.6906E+01  0.7037E+01
    -21.348  0.7237E+01  0.7151E+01
    -21.332  0.7537E+01  0.7271E+01
    -21.317  0.7808E+01  0.7394E+01
    -21.301  0.8052E+01  0.7521E+01
    -21.285  0.8271E+01  0.7652E+01
    -21.269  0.8472E+01  0.7786E+01
    -21.253  0.8657E+01  0.7923E+01
    -21.238  0.8832E+01  0.8063E+01
    -21.222  0.8999E+01  0.8206E+01
    -21.206  0.9162E+01  0.8350E+01
    -21.190  0.9322E+01  0.8498E+01
    -21.174  0.9481E+01  0.8648E+01
    -21.158  0.9639E+01  0.8801E+01
    -21.143  0.9794E+01  0.8955E+01
    -21.127  0.9947E+01  0.9113E+01
    -21.111  0.1009E+02  0.9273E+01
    -21.095  0.1024E+02  0.9435E+01
    -21.079  0.1037E+02  0.9599E+01
    -21.063  0.1051E+02  0.9765E+01
    -21.048  0.1064E+02  0.9933E+01
    -21.032  0.1077E+02  0.1010E+02
    -21.016  0.1090E+02  0.1028E+02
    -21.000  0.1105E+02  0.1045E+02
    -20.984  0.1122E+02  0.1063E+02
    -20.969  0.1142E+02  0.1081E+02
    -20.953  0.1166E+02  0.1099E+02
    -20.937  0.1195E+02  0.1118E+02
    -20.921  0.1230E+02  0.1138E+02
    -20.905  0.1273E+02  0.1158E+02
    -20.889  0.1323E+02  0.1179E+02
    -20.874  0.1382E+02  0.1201E+02
    -20.858  0.1449E+02  0.1224E+02
    -20.842  0.1525E+02  0.1248E+02
    -20.826  0.1610E+02  0.1273E+02
    -20.810  0.1701E+02  0.1300E+02
    -20.794  0.1799E+02  0.1329E+02
    -20.779  0.1901E+02  0.1359E+02
    -20.763  0.2006E+02  0.1390E+02
    -20.747  0.2111E+02  0.1424E+02
    -20.731  0.2215E+02  0.1459E+02
    -20.715  0.2315E+02  0.1496E+02
    -20.700  0.2410E+02  0.1534E+02
    -20.684  0.2497E+02  0.1573E+02
    -20.668  0.2576E+02  0.1614E+02
    -20.652  0.2645E+02  0.1656E+02
    -20.636  0.2704E+02  0.1699E+02
    -20.620  0.2752E+02  0.1742E+02
    -20.605  0.2790E+02  0.1786E+02
    -20.589  0.2819E+02  0.1831E+02
    -20.573  0.2840E+02  0.1876E+02
    -20.557  0.2853E+02  0.1921E+02
    -20.541  0.2861E+02  0.1966E+02
    -20.525  0.2865E+02  0.2012E+02
    -20.510  0.2867E+02  0.2057E+02
    -20.494  0.2867E+02  0.2102E+02
    -20.478  0.2867E+02  0.2148E+02
    -20.462  0.2868E+02  0.2193E+02
    -20.446  0.2870E+02  0.2238E+02
    -20.431  0.2873E+02  0.2284E+02
    -20.415  0.2879E+02  0.2329E+02
    -20.399  0.2886E+02  0.2375E+02
    -20.383  0.2894E+02  0.2421E+02
    -20.367  0.2903E+02  0.2467E+02
    -20.351  0.2911E+02  0.2513E+02
    -20.336  0.2920E+02  0.2559E+02
    -20.320  0.2926E+02  0.2605E+02
    -20.304  0.2931E+02  0.2652E+02
    -20.288  0.2934E+02  0.2698E+02
    -20.272  0.2935E+02  0.2745E+02
    -20.257  0.2932E+02  0.2791E+02
    -20.241  0.2928E+02  0.2837E+02
    -20.225  0.2921E+02  0.2884E+02
    -20.209  0.2913E+02  0.2930E+02
    -20.193  0.2903E+02  0.2976E+02
    -20.177  0.2893E+02  0.3021E+02
    -20.162  0.2883E+02  0.3067E+02
    -20.146  0.2873E+02  0.3112E+02
    -20.130  0.2865E+02  0.3158E+02
    -20.114  0.2857E+02  0.3203E+02
    -20.098  0.2852E+02  0.3248E+02
    -20.082  0.2848E+02  0.3293E+02
    -20.067  0.2846E+02  0.3338E+02
    -20.051  0.2845E+02  0.3383E+02
    -20.035  0.2845E+02  0.3428E+02
    -20.019  0.2847E+02  0.3473E+02
    -20.003  0.2849E+02  0.3518E+02
    -19.988  0.2850E+02  0.3563E+02
    -19.972  0.2851E+02  0.3609E+02
    -19.956  0.2852E+02  0.3654E+02
    -19.940  0.2851E+02  0.3699E+02
    -19.924  0.2848E+02  0.3744E+02
    -19.908  0.2843E+02  0.3789E+02
    -19.893  0.2837E+02  0.3834E+02
    -19.877  0.2829E+02  0.3878E+02
    -19.861  0.2819E+02  0.3923E+02
    -19.845  0.2809E+02  0.3967E+02
    -19.829  0.2797E+02  0.4012E+02
    -19.813  0.2786E+02  0.4056E+02
    -19.798  0.2775E+02  0.4100E+02
    -19.782  0.2766E+02  0.4144E+02
    -19.766  0.2759E+02  0.4187E+02
    -19.750  0.2754E+02  0.4231E+02
    -19.734  0.2752E+02  0.4274E+02
    -19.719  0.2753E+02  0.4318E+02
    -19.703  0.2759E+02  0.4362E+02
    -19.687  0.2768E+02  0.4405E+02
    -19.671  0.2781E+02  0.4449E+02
    -19.655  0.2798E+02  0.4494E+02
    -19.639  0.2817E+02  0.4538E+02
    -19.624  0.2839E+02  0.4583E+02
    -19.608  0.2864E+02  0.4628E+02
    -19.592  0.2889E+02  0.4674E+02
    -19.576  0.2915E+02  0.4720E+02
    -19.560  0.2941E+02  0.4767E+02
    -19.544  0.2966E+02  0.4814E+02
    -19.529  0.2990E+02  0.4861E+02
    -19.513  0.3012E+02  0.4909E+02
    -19.497  0.3031E+02  0.4957E+02
    -19.481  0.3049E+02  0.5005E+02
    -19.465  0.3063E+02  0.5053E+02
    -19.450  0.3075E+02  0.5102E+02
    -19.434  0.3085E+02  0.5151E+02
    -19.418  0.3091E+02  0.5200E+02
    -19.402  0.3095E+02  0.5249E+02
    -19.386  0.3097E+02  0.5298E+02
    -19.370  0.3096E+02  0.5347E+02
    -19.355  0.3093E+02  0.5396E+02
    -19.339  0.3088E+02  0.5444E+02
    -19.323  0.3080E+02  0.5493E+02
    -19.307  0.3071E+02  0.5542E+02
    -19.291  0.3060E+02  0.5590E+02
    -19.275  0.3047E+02  0.5638E+02
    -19.260  0.3032E+02  0.5686E+02
    -19.244  0.3016E+02  0.5734E+02
    -19.228  0.3000E+02  0.5782E+02
    -19.212  0.2982E+02  0.5829E+02
    -19.196  0.2965E+02  0.5876E+02
    -19.181  0.2947E+02  0.5922E+02
    -19.165  0.2931E+02  0.5969E+02
    -19.149  0.2915E+02  0.6015E+02
    -19.133  0.2900E+02  0.6061E+02
    -19.117  0.2888E+02  0.6106E+02
    -19.101  0.2877E+02  0.6152E+02
    -19.086  0.2868E+02  0.6197E+02
    -19.070  0.2861E+02  0.6243E+02
    -19.054  0.2856E+02  0.6288E+02
    -19.038  0.2854E+02  0.6333E+02
    -19.022  0.2853E+02  0.6378E+02
    -19.007  0.2854E+02  0.6423E+02
    -18.991  0.2857E+02  0.6468E+02
    -18.975  0.2860E+02  0.6514E+02
    -18.959  0.2865E+02  0.6559E+02
    -18.943  0.2871E+02  0.6604E+02
    -18.927  0.2877E+02  0.6650E+02
    -18.912  0.2884E+02  0.6696E+02
    -18.896  0.2891E+02  0.6741E+02
    -18.880  0.2900E+02  0.6787E+02
    -18.864  0.2908E+02  0.6833E+02
    -18.848  0.2917E+02  0.6879E+02
    -18.832  0.2927E+02  0.6926E+02
    -18.817  0.2937E+02  0.6972E+02
    -18.801  0.2948E+02  0.7019E+02
    -18.785  0.2959E+02  0.7066E+02
    -18.769  0.2970E+02  0.7113E+02
    -18.753  0.2981E+02  0.7160E+02
    -18.738  0.2992E+02  0.7207E+02
    -18.722  0.3003E+02  0.7255E+02
    -18.706  0.3014E+02  0.7302E+02
    -18.690  0.3024E+02  0.7350E+02
    -18.674  0.3033E+02  0.7398E+02
    -18.658  0.3041E+02  0.7446E+02
    -18.643  0.3049E+02  0.7495E+02
    -18.627  0.3055E+02  0.7543E+02
    -18.611  0.3061E+02  0.7591E+02
    -18.595  0.3065E+02  0.7640E+02
    -18.579  0.3069E+02  0.7688E+02
    -18.563  0.3072E+02  0.7737E+02
    -18.548  0.3073E+02  0.7786E+02
    -18.532  0.3074E+02  0.7834E+02
    -18.516  0.3074E+02  0.7883E+02
    -18.500  0.3073E+02  0.7931E+02
    -18.484  0.3071E+02  0.7980E+02
    -18.469  0.3068E+02  0.8029E+02
    -18.453  0.3063E+02  0.8077E+02
    -18.437  0.3058E+02  0.8125E+02
    -18.421  0.3052E+02  0.8174E+02
    -18.405  0.3044E+02  0.8222E+02
    -18.389  0.3035E+02  0.8270E+02
    -18.374  0.3025E+02  0.8318E+02
    -18.358  0.3015E+02  0.8366E+02
    -18.342  0.3003E+02  0.8413E+02
    -18.326  0.2991E+02  0.8460E+02
    -18.310  0.2979E+02  0.8507E+02
    -18.294  0.2967E+02  0.8554E+02
    -18.279  0.2955E+02  0.8601E+02
    -18.263  0.2944E+02  0.8648E+02
    -18.247  0.2934E+02  0.8694E+02
    -18.231  0.2925E+02  0.8740E+02
    -18.215  0.2918E+02  0.8787E+02
    -18.200  0.2913E+02  0.8833E+02
    -18.184  0.2910E+02  0.8879E+02
    -18.168  0.2910E+02  0.8925E+02
    -18.152  0.2912E+02  0.8971E+02
    -18.136  0.2917E+02  0.9017E+02
    -18.120  0.2925E+02  0.9063E+02
    -18.105  0.2936E+02  0.9110E+02
    -18.089  0.2949E+02  0.9156E+02
    -18.073  0.2964E+02  0.9203E+02
    -18.057  0.2982E+02  0.9251E+02
    -18.041  0.3001E+02  0.9298E+02
    -18.025  0.3022E+02  0.9346E+02
    -18.010  0.3043E+02  0.9394E+02
    -17.994  0.3065E+02  0.9443E+02
    -17.978  0.3086E+02  0.9491E+02
    -17.962  0.3107E+02  0.9541E+02
    -17.946  0.3127E+02  0.9590E+02
    -17.931  0.3146E+02  0.9640E+02
    -17.915  0.3163E+02  0.9690E+02
    -17.899  0.3177E+02  0.9740E+02
    -17.883  0.3190E+02  0.9791E+02
    -17.867  0.3199E+02  0.9841E+02
    -17.851  0.3207E+02  0.9892E+02
    -17.836  0.3211E+02  0.9943E+02
    -17.820  0.3214E+02  0.9994E+02
    -17.804  0.3214E+02  0.1004E+03
    -17.788  0.3212E+02  0.1010E+03
    -17.772  0.3208E+02  0.1015E+03
    -17.757  0.3202E+02  0.1020E+03
    -17.741  0.3196E+02  0.1025E+03
    -17.725  0.3188E+02  0.1030E+03
    -17.709  0.3180E+02  0.1035E+03
    -17.693  0.3171E+02  0.1040E+03
    -17.677  0.3162E+02  0.1045E+03
    -17.662  0.3152E+02  0.1050E+03
    -17.646  0.3142E+02  0.1055E+03
    -17.630  0.3132E+02  0.1060E+03
    -17.614  0.3122E+02  0.1065E+03
    -17.598  0.3112E+02  0.1070E+03
    -17.582  0.3101E+02  0.1075E+03
    -17.567  0.3091E+02  0.1079E+03
    -17.551  0.3080E+02  0.1084E+03
    -17.535  0.3070E+02  0.1089E+03
    -17.519  0.3060E+02  0.1094E+03
    -17.503  0.3051E+02  0.1099E+03
    -17.488  0.3043E+02  0.1104E+03
    -17.472  0.3035E+02  0.1108E+03
    -17.456  0.3029E+02  0.1113E+03
    -17.440  0.3025E+02  0.1118E+03
    -17.424  0.3022E+02  0.1123E+03
    -17.408  0.3021E+02  0.1128E+03
    -17.393  0.3023E+02  0.1132E+03
    -17.377  0.3027E+02  0.1137E+03
    -17.361  0.3033E+02  0.1142E+03
    -17.345  0.3041E+02  0.1147E+03
    -17.329  0.3051E+02  0.1152E+03
    -17.313  0.3062E+02  0.1156E+03
    -17.298  0.3075E+02  0.1161E+03
    -17.282  0.3089E+02  0.1166E+03
    -17.266  0.3104E+02  0.1171E+03
    -17.250  0.3118E+02  0.1176E+03
    -17.234  0.3132E+02  0.1181E+03
    -17.219  0.3145E+02  0.1186E+03
    -17.203  0.3156E+02  0.1191E+03
    -17.187  0.3165E+02  0.1196E+03
    -17.171  0.3172E+02  0.1201E+03
    -17.155  0.3176E+02  0.1206E+03
    -17.139  0.3176E+02  0.1211E+03
    -17.124  0.3173E+02  0.1216E+03
    -17.108  0.3167E+02  0.1221E+03
    -17.092  0.3157E+02  0.1226E+03
    -17.076  0.3145E+02  0.1231E+03
    -17.060  0.3129E+02  0.1236E+03
    -17.044  0.3111E+02  0.1241E+03
    -17.029  0.3090E+02  0.1246E+03
    -17.013  0.3068E+02  0.1251E+03
    -16.997  0.3045E+02  0.1255E+03
    -16.981  0.3022E+02  0.1260E+03
    -16.965  0.3000E+02  0.1265E+03
    -16.950  0.2978E+02  0.1270E+03
    -16.934  0.2959E+02  0.1274E+03
    -16.918  0.2942E+02  0.1279E+03
    -16.902  0.2929E+02  0.1284E+03
    -16.886  0.2919E+02  0.1288E+03
    -16.870  0.2914E+02  0.1293E+03
    -16.855  0.2914E+02  0.1298E+03
    -16.839  0.2918E+02  0.1302E+03
    -16.823  0.2927E+02  0.1307E+03
    -16.807  0.2940E+02  0.1311E+03
    -16.791  0.2958E+02  0.1316E+03
    -16.776  0.2979E+02  0.1321E+03
    -16.760  0.3003E+02  0.1326E+03
    -16.744  0.3029E+02  0.1330E+03
    -16.728  0.3056E+02  0.1335E+03
    -16.712  0.3084E+02  0.1340E+03
    -16.696  0.3112E+02  0.1345E+03
    -16.681  0.3138E+02  0.1350E+03
    -16.665  0.3162E+02  0.1355E+03
    -16.649  0.3184E+02  0.1360E+03
    -16.633  0.3203E+02  0.1365E+03
    -16.617  0.3218E+02  0.1370E+03
    -16.601  0.3231E+02  0.1375E+03
    -16.586  0.3239E+02  0.1380E+03
    -16.570  0.3245E+02  0.1386E+03
    -16.554  0.3248E+02  0.1391E+03
    -16.538  0.3247E+02  0.1396E+03
    -16.522  0.3245E+02  0.1401E+03
    -16.507  0.3241E+02  0.1406E+03
    -16.491  0.3236E+02  0.1411E+03
    -16.475  0.3230E+02  0.1416E+03
    -16.459  0.3224E+02  0.1421E+03
    -16.443  0.3219E+02  0.1426E+03
    -16.427  0.3214E+02  0.1432E+03
    -16.412  0.3211E+02  0.1437E+03
    -16.396  0.3209E+02  0.1442E+03
    -16.380  0.3209E+02  0.1447E+03
    -16.364  0.3211E+02  0.1452E+03
    -16.348  0.3215E+02  0.1457E+03
    -16.332  0.3221E+02  0.1462E+03
    -16.317  0.3228E+02  0.1467E+03
    -16.301  0.3238E+02  0.1472E+03
    -16.285  0.3248E+02  0.1477E+03
    -16.269  0.3260E+02  0.1483E+03
    -16.253  0.3272E+02  0.1488E+03
    -16.238  0.3284E+02  0.1493E+03
    -16.222  0.3295E+02  0.1498E+03
    -16.206  0.3307E+02  0.1503E+03
    -16.190  0.3317E+02  0.1509E+03
    -16.174  0.3326E+02  0.1514E+03
    -16.158  0.3333E+02  0.1519E+03
    -16.143  0.3339E+02  0.1524E+03
    -16.127  0.3342E+02  0.1530E+03
    -16.111  0.3344E+02  0.1535E+03
    -16.095  0.3343E+02  0.1540E+03
    -16.079  0.3340E+02  0.1546E+03
    -16.063  0.3334E+02  0.1551E+03
    -16.048  0.3326E+02  0.1556E+03
    -16.032  0.3316E+02  0.1561E+03
    -16.016  0.3304E+02  0.1567E+03
    -16.000  0.3289E+02  0.1572E+03
    -15.984  0.3273E+02  0.1577E+03
    -15.969  0.3255E+02  0.1582E+03
    -15.953  0.3236E+02  0.1587E+03
    -15.937  0.3216E+02  0.1592E+03
    -15.921  0.3196E+02  0.1597E+03
    -15.905  0.3176E+02  0.1602E+03
    -15.889  0.3158E+02  0.1607E+03
    -15.874  0.3142E+02  0.1612E+03
    -15.858  0.3128E+02  0.1617E+03
    -15.842  0.3117E+02  0.1622E+03
    -15.826  0.3110E+02  0.1627E+03
    -15.810  0.3108E+02  0.1632E+03
    -15.794  0.3109E+02  0.1637E+03
    -15.779  0.3116E+02  0.1642E+03
    -15.763  0.3126E+02  0.1647E+03
    -15.747  0.3141E+02  0.1652E+03
    -15.731  0.3160E+02  0.1657E+03
    -15.715  0.3181E+02  0.1662E+03
    -15.700  0.3204E+02  0.1667E+03
    -15.684  0.3228E+02  0.1672E+03
    -15.668  0.3251E+02  0.1677E+03
    -15.652  0.3273E+02  0.1682E+03
    -15.636  0.3292E+02  0.1688E+03
    -15.620  0.3307E+02  0.1693E+03
    -15.605  0.3316E+02  0.1698E+03
    -15.589  0.3320E+02  0.1703E+03
    -15.573  0.3317E+02  0.1709E+03
    -15.557  0.3307E+02  0.1714E+03
    -15.541  0.3289E+02  0.1719E+03
    -15.526  0.3264E+02  0.1724E+03
    -15.510  0.3231E+02  0.1729E+03
    -15.494  0.3193E+02  0.1734E+03
    -15.478  0.3148E+02  0.1739E+03
    -15.462  0.3099E+02  0.1744E+03
    -15.446  0.3046E+02  0.1749E+03
    -15.431  0.2992E+02  0.1754E+03
    -15.415  0.2936E+02  0.1758E+03
    -15.399  0.2881E+02  0.1763E+03
    -15.383  0.2827E+02  0.1768E+03
    -15.367  0.2776E+02  0.1772E+03
    -15.351  0.2728E+02  0.1776E+03
    -15.336  0.2685E+02  0.1780E+03
    -15.320  0.2646E+02  0.1785E+03
    -15.304  0.2613E+02  0.1789E+03
    -15.288  0.2584E+02  0.1793E+03
    -15.272  0.2560E+02  0.1797E+03
    -15.257  0.2541E+02  0.1801E+03
    -15.241  0.2526E+02  0.1805E+03
    -15.225  0.2513E+02  0.1809E+03
    -15.209  0.2504E+02  0.1813E+03
    -15.193  0.2495E+02  0.1817E+03
    -15.177  0.2488E+02  0.1821E+03
    -15.162  0.2480E+02  0.1825E+03
    -15.146  0.2472E+02  0.1829E+03
    -15.130  0.2463E+02  0.1833E+03
    -15.114  0.2452E+02  0.1836E+03
    -15.098  0.2440E+02  0.1840E+03
    -15.082  0.2427E+02  0.1844E+03
    -15.067  0.2413E+02  0.1848E+03
    -15.051  0.2398E+02  0.1852E+03
    -15.035  0.2383E+02  0.1855E+03
    -15.019  0.2369E+02  0.1859E+03
    -15.003  0.2356E+02  0.1863E+03
    -14.988  0.2346E+02  0.1867E+03
    -14.972  0.2340E+02  0.1870E+03
    -14.956  0.2337E+02  0.1874E+03
    -14.940  0.2339E+02  0.1878E+03
    -14.924  0.2346E+02  0.1881E+03
    -14.908  0.2359E+02  0.1885E+03
    -14.893  0.2377E+02  0.1889E+03
    -14.877  0.2400E+02  0.1893E+03
    -14.861  0.2430E+02  0.1897E+03
    -14.845  0.2464E+02  0.1901E+03
    -14.829  0.2503E+02  0.1904E+03
    -14.813  0.2545E+02  0.1909E+03
    -14.798  0.2591E+02  0.1913E+03
    -14.782  0.2640E+02  0.1917E+03
    -14.766  0.2689E+02  0.1921E+03
    -14.750  0.2740E+02  0.1925E+03
    -14.734  0.2790E+02  0.1930E+03
    -14.719  0.2838E+02  0.1934E+03
    -14.703  0.2884E+02  0.1939E+03
    -14.687  0.2928E+02  0.1943E+03
    -14.671  0.2967E+02  0.1948E+03
    -14.655  0.3002E+02  0.1953E+03
    -14.639  0.3032E+02  0.1958E+03
    -14.624  0.3057E+02  0.1963E+03
    -14.608  0.3076E+02  0.1967E+03
    -14.592  0.3090E+02  0.1972E+03
    -14.576  0.3098E+02  0.1977E+03
    -14.560  0.3101E+02  0.1982E+03
    -14.544  0.3099E+02  0.1987E+03
    -14.529  0.3093E+02  0.1992E+03
    -14.513  0.3082E+02  0.1997E+03
    -14.497  0.3069E+02  0.2002E+03
    -14.481  0.3053E+02  0.2006E+03
    -14.465  0.3035E+02  0.2011E+03
    -14.450  0.3017E+02  0.2016E+03
    -14.434  0.2998E+02  0.2021E+03
    -14.418  0.2980E+02  0.2026E+03
    -14.402  0.2963E+02  0.2030E+03
    -14.386  0.2948E+02  0.2035E+03
    -14.370  0.2936E+02  0.2040E+03
    -14.355  0.2926E+02  0.2044E+03
    -14.339  0.2919E+02  0.2049E+03
    -14.323  0.2915E+02  0.2053E+03
    -14.307  0.2915E+02  0.2058E+03
    -14.291  0.2918E+02  0.2063E+03
    -14.276  0.2924E+02  0.2067E+03
    -14.260  0.2933E+02  0.2072E+03
    -14.244  0.2945E+02  0.2077E+03
    -14.228  0.2960E+02  0.2081E+03
    -14.212  0.2978E+02  0.2086E+03
    -14.196  0.2997E+02  0.2091E+03
    -14.181  0.3018E+02  0.2095E+03
    -14.165  0.3041E+02  0.2100E+03
    -14.149  0.3065E+02  0.2105E+03
    -14.133  0.3090E+02  0.2110E+03
    -14.117  0.3115E+02  0.2115E+03
    -14.101  0.3139E+02  0.2120E+03
    -14.086  0.3164E+02  0.2125E+03
    -14.070  0.3188E+02  0.2130E+03
    -14.054  0.3211E+02  0.2135E+03
    -14.038  0.3233E+02  0.2140E+03
    -14.022  0.3253E+02  0.2145E+03
    -14.007  0.3272E+02  0.2150E+03
    -13.991  0.3289E+02  0.2156E+03
    -13.975  0.3304E+02  0.2161E+03
    -13.959  0.3317E+02  0.2166E+03
    -13.943  0.3328E+02  0.2171E+03
    -13.927  0.3338E+02  0.2177E+03
    -13.912  0.3345E+02  0.2182E+03
    -13.896  0.3350E+02  0.2187E+03
    -13.880  0.3354E+02  0.2193E+03
    -13.864  0.3356E+02  0.2198E+03
    -13.848  0.3357E+02  0.2203E+03
    -13.832  0.3357E+02  0.2209E+03
    -13.817  0.3355E+02  0.2214E+03
    -13.801  0.3353E+02  0.2219E+03
    -13.785  0.3350E+02  0.2224E+03
    -13.769  0.3347E+02  0.2230E+03
    -13.753  0.3343E+02  0.2235E+03
    -13.738  0.3338E+02  0.2240E+03
    -13.722  0.3334E+02  0.2246E+03
    -13.706  0.3328E+02  0.2251E+03
    -13.690  0.3323E+02  0.2256E+03
    -13.674  0.3316E+02  0.2261E+03
    -13.658  0.3309E+02  0.2267E+03
    -13.643  0.3301E+02  0.2272E+03
    -13.627  0.3292E+02  0.2277E+03
    -13.611  0.3282E+02  0.2282E+03
    -13.595  0.3271E+02  0.2287E+03
    -13.579  0.3259E+02  0.2293E+03
    -13.563  0.3245E+02  0.2298E+03
    -13.548  0.3230E+02  0.2303E+03
    -13.532  0.3214E+02  0.2308E+03
    -13.516  0.3197E+02  0.2313E+03
    -13.500  0.3179E+02  0.2318E+03
    -13.484  0.3161E+02  0.2323E+03
    -13.469  0.3142E+02  0.2328E+03
    -13.453  0.3122E+02  0.2333E+03
    -13.437  0.3103E+02  0.2338E+03
    -13.421  0.3084E+02  0.2343E+03
    -13.405  0.3066E+02  0.2348E+03
    -13.389  0.3048E+02  0.2352E+03
    -13.374  0.3032E+02  0.2357E+03
    -13.358  0.3018E+02  0.2362E+03
    -13.342  0.3004E+02  0.2367E+03
    -13.326  0.2992E+02  0.2371E+03
    -13.310  0.2982E+02  0.2376E+03
    -13.295  0.2972E+02  0.2381E+03
    -13.279  0.2964E+02  0.2386E+03
    -13.263  0.2957E+02  0.2390E+03
    -13.247  0.2951E+02  0.2395E+03
    -13.231  0.2945E+02  0.2400E+03
    -13.215  0.2939E+02  0.2404E+03
    -13.200  0.2934E+02  0.2409E+03
    -13.184  0.2928E+02  0.2413E+03
    -13.168  0.2923E+02  0.2418E+03
    -13.152  0.2919E+02  0.2423E+03
    -13.136  0.2914E+02  0.2427E+03
    -13.120  0.2910E+02  0.2432E+03
    -13.105  0.2907E+02  0.2437E+03
    -13.089  0.2904E+02  0.2441E+03
    -13.073  0.2903E+02  0.2446E+03
    -13.057  0.2902E+02  0.2450E+03
    -13.041  0.2903E+02  0.2455E+03
    -13.026  0.2905E+02  0.2459E+03
    -13.010  0.2909E+02  0.2464E+03
    -12.994  0.2913E+02  0.2469E+03
    -12.978  0.2919E+02  0.2473E+03
    -12.962  0.2925E+02  0.2478E+03
    -12.946  0.2932E+02  0.2483E+03
    -12.931  0.2939E+02  0.2487E+03
    -12.915  0.2946E+02  0.2492E+03
    -12.899  0.2952E+02  0.2497E+03
    -12.883  0.2957E+02  0.2501E+03
    -12.867  0.2960E+02  0.2506E+03
    -12.851  0.2962E+02  0.2511E+03
    -12.836  0.2962E+02  0.2515E+03
    -12.820  0.2961E+02  0.2520E+03
    -12.804  0.2957E+02  0.2525E+03
    -12.788  0.2951E+02  0.2529E+03
    -12.772  0.2944E+02  0.2534E+03
    -12.757  0.2936E+02  0.2539E+03
    -12.741  0.2928E+02  0.2543E+03
    -12.725  0.2919E+02  0.2548E+03
    -12.709  0.2910E+02  0.2552E+03
    -12.693  0.2903E+02  0.2557E+03
    -12.677  0.2897E+02  0.2562E+03
    -12.662  0.2893E+02  0.2566E+03
    -12.646  0.2892E+02  0.2571E+03
    -12.630  0.2892E+02  0.2575E+03
    -12.614  0.2896E+02  0.2580E+03
    -12.598  0.2902E+02  0.2585E+03
    -12.582  0.2911E+02  0.2589E+03
    -12.567  0.2922E+02  0.2594E+03
    -12.551  0.2936E+02  0.2598E+03
    -12.535  0.2952E+02  0.2603E+03