 210 210   0   0
  0.5972755E+02  0.2906632E-08  0.2157615E-08  0.2000000E-08  0.5000000E-15
  1.000000000000000E-004
  CAR 
 unknown system                          
      2.75606798    -25.17771831 2000     -3.99119277      1.00000000
    -25.178  0.0000E+00  0.0000E+00
    -25.164  0.0000E+00  0.0000E+00
    -25.150  0.0000E+00  0.0000E+00
    -25.136  0.0000E+00  0.0000E+00
    -25.122  0.0000E+00  0.0000E+00
    -25.108  0.0000E+00  0.0000E+00
    -25.094  0.0000E+00  0.0000E+00
    -25.080  0.0000E+00  0.0000E+00
    -25.066  0.0000E+00  0.0000E+00
    -25.052  0.0000E+00  0.0000E+00
    -25.038  0.0000E+00  0.0000E+00
    -25.024  0.0000E+00  0.0000E+00
    -25.010  0.0000E+00  0.0000E+00
    -24.996  0.0000E+00  0.0000E+00
    -24.982  0.0000E+00  0.0000E+00
    -24.968  0.0000E+00  0.0000E+00
    -24.954  0.0000E+00  0.0000E+00
    -24.940  0.0000E+00  0.0000E+00
    -24.926  0.0000E+00  0.0000E+00
    -24.912  0.0000E+00  0.0000E+00
    -24.898  0.0000E+00  0.0000E+00
    -24.884  0.0000E+00  0.0000E+00
    -24.870  0.0000E+00  0.0000E+00
    -24.856  0.0000E+00  0.0000E+00
    -24.842  0.0000E+00  0.0000E+00
    -24.828  0.0000E+00  0.0000E+00
    -24.814  0.0000E+00  0.0000E+00
    -24.800  0.0000E+00  0.0000E+00
    -24.786  0.0000E+00  0.0000E+00
    -24.772  0.0000E+00  0.0000E+00
    -24.759  0.0000E+00  0.0000E+00
    -24.745  0.0000E+00  0.0000E+00
    -24.731  0.0000E+00  0.0000E+00
    -24.717  0.0000E+00  0.0000E+00
    -24.703  0.0000E+00  0.0000E+00
    -24.689  0.0000E+00  0.0000E+00
    -24.675  0.0000E+00  0.0000E+00
    -24.661  0.0000E+00  0.0000E+00
    -24.647  0.0000E+00  0.0000E+00
    -24.633  0.0000E+00  0.0000E+00
    -24.619  0.0000E+00  0.0000E+00
    -24.605  0.0000E+00  0.0000E+00
    -24.591  0.0000E+00  0.0000E+00
    -24.577  0.0000E+00  0.0000E+00
    -24.563  0.0000E+00  0.0000E+00
    -24.549  0.0000E+00  0.0000E+00
    -24.535  0.0000E+00  0.0000E+00
    -24.521  0.0000E+00  0.0000E+00
    -24.507  0.0000E+00  0.0000E+00
    -24.493  0.0000E+00  0.0000E+00
    -24.479  0.0000E+00  0.0000E+00
    -24.465  0.0000E+00  0.0000E+00
    -24.451  0.0000E+00  0.0000E+00
    -24.437  0.0000E+00  0.0000E+00
    -24.423  0.0000E+00  0.0000E+00
    -24.409  0.0000E+00  0.0000E+00
    -24.395  0.0000E+00  0.0000E+00
    -24.381  0.0000E+00  0.0000E+00
    -24.367  0.0000E+00  0.0000E+00
    -24.353  0.7945E-14  0.1110E-15
    -24.339  0.7945E-14  0.2220E-15
    -24.325  0.1589E-13  0.4441E-15
    -24.311  0.4767E-13  0.1110E-14
    -24.297  0.9534E-13  0.2442E-14
    -24.283  0.2066E-12  0.5329E-14
    -24.269  0.4529E-12  0.1166E-13
    -24.255  0.9693E-12  0.2520E-13
    -24.241  0.2058E-11  0.5396E-13
    -24.227  0.4330E-11  0.1145E-12
    -24.214  0.9002E-11  0.2403E-12
    -24.200  0.1855E-10  0.4995E-12
    -24.186  0.3786E-10  0.1029E-11
    -24.172  0.7652E-10  0.2098E-11
    -24.158  0.1531E-09  0.4238E-11
    -24.144  0.3035E-09  0.8479E-11
    -24.130  0.5958E-09  0.1680E-10
    -24.116  0.1158E-08  0.3299E-10
    -24.102  0.2229E-08  0.6413E-10
    -24.088  0.4249E-08  0.1235E-09
    -24.074  0.8020E-08  0.2356E-09
    -24.060  0.1499E-07  0.4451E-09
    -24.046  0.2775E-07  0.8329E-09
    -24.032  0.5087E-07  0.1544E-08
    -24.018  0.9236E-07  0.2834E-08
    -24.004  0.1660E-06  0.5155E-08
    -23.990  0.2956E-06  0.9285E-08
    -23.976  0.5212E-06  0.1657E-07
    -23.962  0.9099E-06  0.2928E-07
    -23.948  0.1573E-05  0.5127E-07
    -23.934  0.2694E-05  0.8891E-07
    -23.920  0.4567E-05  0.1527E-06
    -23.906  0.7669E-05  0.2599E-06
    -23.892  0.1275E-04  0.4381E-06
    -23.878  0.2100E-04  0.7315E-06
    -23.864  0.3424E-04  0.1210E-05
    -23.850  0.5529E-04  0.1983E-05
    -23.836  0.8842E-04  0.3218E-05
    -23.822  0.1400E-03  0.5175E-05
    -23.808  0.2196E-03  0.8244E-05
    -23.794  0.3410E-03  0.1301E-04
    -23.780  0.5245E-03  0.2034E-04
    -23.766  0.7989E-03  0.3150E-04
    -23.752  0.1205E-02  0.4834E-04
    -23.738  0.1800E-02  0.7349E-04
    -23.724  0.2662E-02  0.1107E-03
    -23.710  0.3899E-02  0.1652E-03
    -23.696  0.5655E-02  0.2442E-03
    -23.683  0.8124E-02  0.3577E-03
    -23.669  0.1156E-01  0.5192E-03
    -23.655  0.1628E-01  0.7467E-03
    -23.641  0.2271E-01  0.1064E-02
    -23.627  0.3137E-01  0.1502E-02
    -23.613  0.4292E-01  0.2102E-02
    -23.599  0.5815E-01  0.2915E-02
    -23.585  0.7801E-01  0.4005E-02
    -23.571  0.1037E+00  0.5453E-02
    -23.557  0.1364E+00  0.7359E-02
    -23.543  0.1777E+00  0.9842E-02
    -23.529  0.2293E+00  0.1305E-01
    -23.515  0.2930E+00  0.1714E-01
    -23.501  0.3708E+00  0.2232E-01
    -23.487  0.4646E+00  0.2881E-01
    -23.473  0.5766E+00  0.3687E-01
    -23.459  0.7087E+00  0.4677E-01
    -23.445  0.8625E+00  0.5883E-01
    -23.431  0.1040E+01  0.7336E-01
    -23.417  0.1241E+01  0.9070E-01
    -23.403  0.1467E+01  0.1112E+00
    -23.389  0.1718E+01  0.1352E+00
    -23.375  0.1992E+01  0.1630E+00
    -23.361  0.2288E+01  0.1950E+00
    -23.347  0.2603E+01  0.2314E+00
    -23.333  0.2932E+01  0.2724E+00
    -23.319  0.3273E+01  0.3181E+00
    -23.305  0.3619E+01  0.3687E+00
    -23.291  0.3964E+01  0.4240E+00
    -23.277  0.4301E+01  0.4842E+00
    -23.263  0.4626E+01  0.5488E+00
    -23.249  0.4930E+01  0.6177E+00
    -23.235  0.5209E+01  0.6905E+00
    -23.221  0.5457E+01  0.7667E+00
    -23.207  0.5670E+01  0.8460E+00
    -23.193  0.5845E+01  0.9276E+00
    -23.179  0.5980E+01  0.1011E+01
    -23.165  0.6077E+01  0.1096E+01
    -23.152  0.6137E+01  0.1182E+01
    -23.138  0.6163E+01  0.1268E+01
    -23.124  0.6160E+01  0.1354E+01
    -23.110  0.6134E+01  0.1440E+01
    -23.096  0.6092E+01  0.1525E+01
    -23.082  0.6040E+01  0.1609E+01
    -23.068  0.5986E+01  0.1693E+01
    -23.054  0.5936E+01  0.1776E+01
    -23.040  0.5896E+01  0.1858E+01
    -23.026  0.5872E+01  0.1940E+01
    -23.012  0.5865E+01  0.2022E+01
    -22.998  0.5880E+01  0.2104E+01
    -22.984  0.5914E+01  0.2187E+01
    -22.970  0.5969E+01  0.2271E+01
    -22.956  0.6040E+01  0.2355E+01
    -22.942  0.6124E+01  0.2441E+01
    -22.928  0.6218E+01  0.2527E+01
    -22.914  0.6315E+01  0.2616E+01
    -22.900  0.6413E+01  0.2705E+01
    -22.886  0.6505E+01  0.2796E+01
    -22.872  0.6590E+01  0.2888E+01
    -22.858  0.6665E+01  0.2981E+01
    -22.844  0.6729E+01  0.3075E+01
    -22.830  0.6784E+01  0.3170E+01
    -22.816  0.6832E+01  0.3266E+01
    -22.802  0.6877E+01  0.3362E+01
    -22.788  0.6924E+01  0.3459E+01
    -22.774  0.6980E+01  0.3556E+01
    -22.760  0.7051E+01  0.3655E+01
    -22.746  0.7143E+01  0.3754E+01
    -22.732  0.7264E+01  0.3856E+01
    -22.718  0.7419E+01  0.3960E+01
    -22.704  0.7610E+01  0.4066E+01
    -22.690  0.7842E+01  0.4176E+01
    -22.676  0.8114E+01  0.4289E+01
    -22.662  0.8424E+01  0.4407E+01
    -22.648  0.8769E+01  0.4529E+01
    -22.634  0.9142E+01  0.4657E+01
    -22.620  0.9538E+01  0.4790E+01
    -22.607  0.9946E+01  0.4929E+01
    -22.593  0.1036E+02  0.5074E+01
    -22.579  0.1077E+02  0.5224E+01
    -22.565  0.1116E+02  0.5380E+01
    -22.551  0.1154E+02  0.5542E+01
    -22.537  0.1188E+02  0.5708E+01
    -22.523  0.1220E+02  0.5878E+01
    -22.509  0.1249E+02  0.6053E+01
    -22.495  0.1275E+02  0.6231E+01
    -22.481  0.1299E+02  0.6412E+01
    -22.467  0.1321E+02  0.6597E+01
    -22.453  0.1343E+02  0.6785E+01
    -22.439  0.1365E+02  0.6975E+01
    -22.425  0.1390E+02  0.7170E+01
    -22.411  0.1418E+02  0.7368E+01
    -22.397  0.1451E+02  0.7571E+01
    -22.383  0.1490E+02  0.7779E+01
    -22.369  0.1536E+02  0.7993E+01
    -22.355  0.1590E+02  0.8215E+01
    -22.341  0.1652E+02  0.8446E+01
    -22.327  0.1723E+02  0.8687E+01
    -22.313  0.1801E+02  0.8939E+01
    -22.299  0.1888E+02  0.9202E+01
    -22.285  0.1981E+02  0.9479E+01
    -22.271  0.2079E+02  0.9770E+01
    -22.257  0.2180E+02  0.1007E+02
    -22.243  0.2283E+02  0.1039E+02
    -22.229  0.2386E+02  0.1073E+02
    -22.215  0.2486E+02  0.1107E+02
    -22.201  0.2582E+02  0.1143E+02
    -22.187  0.2673E+02  0.1181E+02
    -22.173  0.2756E+02  0.1219E+02
    -22.159  0.2830E+02  0.1259E+02
    -22.145  0.2896E+02  0.1299E+02
    -22.131  0.2952E+02  0.1341E+02
    -22.117  0.2998E+02  0.1383E+02
    -22.103  0.3035E+02  0.1425E+02
    -22.089  0.3063E+02  0.1468E+02
    -22.076  0.3082E+02  0.1511E+02
    -22.062  0.3095E+02  0.1554E+02
    -22.048  0.3101E+02  0.1597E+02
    -22.034  0.3102E+02  0.1641E+02
    -22.020  0.3098E+02  0.1684E+02
    -22.006  0.3091E+02  0.1727E+02
    -21.992  0.3081E+02  0.1770E+02
    -21.978  0.3068E+02  0.1813E+02
    -21.964  0.3053E+02  0.1856E+02
    -21.950  0.3035E+02  0.1898E+02
    -21.936  0.3014E+02  0.1940E+02
    -21.922  0.2990E+02  0.1982E+02
    -21.908  0.2963E+02  0.2024E+02
    -21.894  0.2931E+02  0.2064E+02
    -21.880  0.2895E+02  0.2105E+02
    -21.866  0.2854E+02  0.2145E+02
    -21.852  0.2808E+02  0.2184E+02
    -21.838  0.2757E+02  0.2223E+02
    -21.824  0.2702E+02  0.2260E+02
    -21.810  0.2643E+02  0.2297E+02
    -21.796  0.2582E+02  0.2333E+02
    -21.782  0.2519E+02  0.2369E+02
    -21.768  0.2455E+02  0.2403E+02
    -21.754  0.2393E+02  0.2436E+02
    -21.740  0.2333E+02  0.2469E+02
    -21.726  0.2276E+02  0.2501E+02
    -21.712  0.2226E+02  0.2532E+02
    -21.698  0.2182E+02  0.2562E+02
    -21.684  0.2145E+02  0.2592E+02
    -21.670  0.2116E+02  0.2622E+02
    -21.656  0.2096E+02  0.2651E+02
    -21.642  0.2085E+02  0.2680E+02
    -21.628  0.2081E+02  0.2709E+02
    -21.614  0.2086E+02  0.2738E+02
    -21.600  0.2098E+02  0.2768E+02
    -21.586  0.2116E+02  0.2797E+02
    -21.572  0.2140E+02  0.2827E+02
    -21.558  0.2168E+02  0.2858E+02
    -21.545  0.2200E+02  0.2888E+02
    -21.531  0.2234E+02  0.2920E+02
    -21.517  0.2270E+02  0.2951E+02
    -21.503  0.2307E+02  0.2983E+02
    -21.489  0.2344E+02  0.3016E+02
    -21.475  0.2382E+02  0.3050E+02
    -21.461  0.2420E+02  0.3083E+02
    -21.447  0.2457E+02  0.3118E+02
    -21.433  0.2495E+02  0.3153E+02
    -21.419  0.2533E+02  0.3188E+02
    -21.405  0.2572E+02  0.3224E+02
    -21.391  0.2612E+02  0.3260E+02
    -21.377  0.2653E+02  0.3297E+02
    -21.363  0.2696E+02  0.3335E+02
    -21.349  0.2740E+02  0.3373E+02
    -21.335  0.2787E+02  0.3412E+02
    -21.321  0.2835E+02  0.3452E+02
    -21.307  0.2885E+02  0.3492E+02
    -21.293  0.2937E+02  0.3533E+02
    -21.279  0.2990E+02  0.3575E+02
    -21.265  0.3044E+02  0.3618E+02
    -21.251  0.3098E+02  0.3661E+02
    -21.237  0.3151E+02  0.3705E+02
    -21.223  0.3203E+02  0.3750E+02
    -21.209  0.3252E+02  0.3795E+02
    -21.195  0.3298E+02  0.3841E+02
    -21.181  0.3339E+02  0.3888E+02
    -21.167  0.3375E+02  0.3935E+02
    -21.153  0.3405E+02  0.3983E+02
    -21.139  0.3428E+02  0.4031E+02
    -21.125  0.3444E+02  0.4079E+02
    -21.111  0.3451E+02  0.4127E+02
    -21.097  0.3451E+02  0.4175E+02
    -21.083  0.3443E+02  0.4223E+02
    -21.069  0.3427E+02  0.4271E+02
    -21.055  0.3405E+02  0.4319E+02
    -21.041  0.3375E+02  0.4366E+02
    -21.027  0.3340E+02  0.4413E+02
    -21.014  0.3300E+02  0.4459E+02
    -21.000  0.3256E+02  0.4504E+02
    -20.986  0.3209E+02  0.4549E+02
    -20.972  0.3161E+02  0.4593E+02
    -20.958  0.3112E+02  0.4637E+02
    -20.944  0.3063E+02  0.4679E+02
    -20.930  0.3016E+02  0.4722E+02
    -20.916  0.2972E+02  0.4763E+02
    -20.902  0.2930E+02  0.4804E+02
    -20.888  0.2892E+02  0.4845E+02
    -20.874  0.2858E+02  0.4884E+02
    -20.860  0.2829E+02  0.4924E+02
    -20.846  0.2804E+02  0.4963E+02
    -20.832  0.2784E+02  0.5002E+02
    -20.818  0.2769E+02  0.5041E+02
    -20.804  0.2759E+02  0.5079E+02
    -20.790  0.2754E+02  0.5118E+02
    -20.776  0.2753E+02  0.5156E+02
    -20.762  0.2757E+02  0.5195E+02
    -20.748  0.2765E+02  0.5233E+02
    -20.734  0.2777E+02  0.5272E+02
    -20.720  0.2792E+02  0.5311E+02
    -20.706  0.2810E+02  0.5351E+02
    -20.692  0.2830E+02  0.5390E+02
    -20.678  0.2853E+02  0.5430E+02
    -20.664  0.2877E+02  0.5470E+02
    -20.650  0.2903E+02  0.5511E+02
    -20.636  0.2929E+02  0.5552E+02
    -20.622  0.2956E+02  0.5593E+02
    -20.608  0.2982E+02  0.5635E+02
    -20.594  0.3008E+02  0.5677E+02
    -20.580  0.3034E+02  0.5719E+02
    -20.566  0.3059E+02  0.5762E+02
    -20.552  0.3083E+02  0.5805E+02
    -20.538  0.3106E+02  0.5848E+02
    -20.524  0.3128E+02  0.5892E+02
    -20.510  0.3149E+02  0.5936E+02
    -20.496  0.3170E+02  0.5980E+02
    -20.482  0.3190E+02  0.6025E+02
    -20.469  0.3210E+02  0.6070E+02
    -20.455  0.3230E+02  0.6115E+02
    -20.441  0.3250E+02  0.6160E+02
    -20.427  0.3269E+02  0.6206E+02
    -20.413  0.3289E+02  0.6252E+02
    -20.399  0.3308E+02  0.6298E+02
    -20.385  0.3327E+02  0.6345E+02
    -20.371  0.3345E+02  0.6391E+02
    -20.357  0.3362E+02  0.6438E+02
    -20.343  0.3377E+02  0.6486E+02
    -20.329  0.3390E+02  0.6533E+02
    -20.315  0.3400E+02  0.6580E+02
    -20.301  0.3407E+02  0.6628E+02
    -20.287  0.3409E+02  0.6676E+02
    -20.273  0.3407E+02  0.6723E+02
    -20.259  0.3401E+02  0.6771E+02
    -20.245  0.3389E+02  0.6818E+02
    -20.231  0.3372E+02  0.6865E+02
    -20.217  0.3350E+02  0.6912E+02
    -20.203  0.3324E+02  0.6959E+02
    -20.189  0.3293E+02  0.7005E+02
    -20.175  0.3260E+02  0.7050E+02
    -20.161  0.3224E+02  0.7095E+02
    -20.147  0.3186E+02  0.7140E+02
    -20.133  0.3148E+02  0.7184E+02
    -20.119  0.3111E+02  0.7227E+02
    -20.105  0.3075E+02  0.7270E+02
    -20.091  0.3043E+02  0.7313E+02
    -20.077  0.3014E+02  0.7355E+02
    -20.063  0.2989E+02  0.7397E+02
    -20.049  0.2969E+02  0.7438E+02
    -20.035  0.2955E+02  0.7479E+02
    -20.021  0.2947E+02  0.7521E+02
    -20.007  0.2944E+02  0.7562E+02
    -19.993  0.2946E+02  0.7603E+02
    -19.979  0.2954E+02  0.7644E+02
    -19.965  0.2965E+02  0.7686E+02
    -19.951  0.2981E+02  0.7727E+02
    -19.938  0.2999E+02  0.7769E+02
    -19.924  0.3020E+02  0.7811E+02
    -19.910  0.3043E+02  0.7854E+02
    -19.896  0.3066E+02  0.7897E+02
    -19.882  0.3090E+02  0.7940E+02
    -19.868  0.3114E+02  0.7983E+02
    -19.854  0.3137E+02  0.8027E+02
    -19.840  0.3158E+02  0.8071E+02
    -19.826  0.3179E+02  0.8116E+02
    -19.812  0.3198E+02  0.8160E+02
    -19.798  0.3216E+02  0.8205E+02
    -19.784  0.3232E+02  0.8251E+02
    -19.770  0.3247E+02  0.8296E+02
    -19.756  0.3260E+02  0.8341E+02
    -19.742  0.3273E+02  0.8387E+02
    -19.728  0.3284E+02  0.8433E+02
    -19.714  0.3294E+02  0.8479E+02
    -19.700  0.3304E+02  0.8525E+02
    -19.686  0.3313E+02  0.8572E+02
    -19.672  0.3321E+02  0.8618E+02
    -19.658  0.3328E+02  0.8664E+02
    -19.644  0.3334E+02  0.8711E+02
    -19.630  0.3340E+02  0.8758E+02
    -19.616  0.3345E+02  0.8804E+02
    -19.602  0.3348E+02  0.8851E+02
    -19.588  0.3351E+02  0.8898E+02
    -19.574  0.3353E+02  0.8945E+02
    -19.560  0.3354E+02  0.8992E+02
    -19.546  0.3354E+02  0.9039E+02
    -19.532  0.3354E+02  0.9086E+02
    -19.518  0.3354E+02  0.9132E+02
    -19.504  0.3354E+02  0.9179E+02
    -19.490  0.3355E+02  0.9226E+02
    -19.476  0.3358E+02  0.9273E+02
    -19.462  0.3363E+02  0.9320E+02
    -19.448  0.3370E+02  0.9367E+02
    -19.434  0.3380E+02  0.9414E+02
    -19.420  0.3393E+02  0.9462E+02
    -19.407  0.3410E+02  0.9509E+02
    -19.393  0.3431E+02  0.9557E+02
    -19.379  0.3455E+02  0.9606E+02
    -19.365  0.3483E+02  0.9654E+02
    -19.351  0.3514E+02  0.9703E+02
    -19.337  0.3548E+02  0.9753E+02
    -19.323  0.3584E+02  0.9803E+02
    -19.309  0.3622E+02  0.9854E+02
    -19.295  0.3661E+02  0.9905E+02
    -19.281  0.3700E+02  0.9957E+02
    -19.267  0.3739E+02  0.1001E+03
    -19.253  0.3775E+02  0.1006E+03
    -19.239  0.3810E+02  0.1011E+03
    -19.225  0.3842E+02  0.1017E+03
    -19.211  0.3871E+02  0.1022E+03
    -19.197  0.3895E+02  0.1028E+03
    -19.183  0.3915E+02  0.1033E+03
    -19.169  0.3931E+02  0.1039E+03
    -19.155  0.3942E+02  0.1044E+03
    -19.141  0.3947E+02  0.1050E+03
    -19.127  0.3948E+02  0.1055E+03
    -19.113  0.3944E+02  0.1061E+03
    -19.099  0.3935E+02  0.1066E+03
    -19.085  0.3921E+02  0.1072E+03
    -19.071  0.3902E+02  0.1077E+03
    -19.057  0.3880E+02  0.1083E+03
    -19.043  0.3855E+02  0.1088E+03
    -19.029  0.3826E+02  0.1093E+03
    -19.015  0.3795E+02  0.1099E+03
    -19.001  0.3762E+02  0.1104E+03
    -18.987  0.3728E+02  0.1109E+03
    -18.973  0.3694E+02  0.1114E+03
    -18.959  0.3661E+02  0.1119E+03
    -18.945  0.3629E+02  0.1124E+03
    -18.931  0.3599E+02  0.1129E+03
    -18.917  0.3571E+02  0.1134E+03
    -18.903  0.3547E+02  0.1139E+03
    -18.889  0.3526E+02  0.1144E+03
    -18.875  0.3509E+02  0.1149E+03
    -18.862  0.3496E+02  0.1154E+03
    -18.848  0.3487E+02  0.1159E+03
    -18.834  0.3482E+02  0.1164E+03
    -18.820  0.3482E+02  0.1169E+03
    -18.806  0.3484E+02  0.1174E+03
    -18.792  0.3490E+02  0.1178E+03
    -18.778  0.3499E+02  0.1183E+03
    -18.764  0.3511E+02  0.1188E+03
    -18.750  0.3524E+02  0.1193E+03
    -18.736  0.3539E+02  0.1198E+03
    -18.722  0.3555E+02  0.1203E+03
    -18.708  0.3571E+02  0.1208E+03
    -18.694  0.3587E+02  0.1213E+03
    -18.680  0.3603E+02  0.1218E+03
    -18.666  0.3618E+02  0.1223E+03
    -18.652  0.3632E+02  0.1228E+03
    -18.638  0.3644E+02  0.1233E+03
    -18.624  0.3654E+02  0.1238E+03
    -18.610  0.3661E+02  0.1244E+03
    -18.596  0.3665E+02  0.1249E+03
    -18.582  0.3665E+02  0.1254E+03
    -18.568  0.3662E+02  0.1259E+03
    -18.554  0.3654E+02  0.1264E+03
    -18.540  0.3642E+02  0.1269E+03
    -18.526  0.3625E+02  0.1274E+03
    -18.512  0.3603E+02  0.1279E+03
    -18.498  0.3576E+02  0.1284E+03
    -18.484  0.3545E+02  0.1289E+03
    -18.470  0.3509E+02  0.1294E+03
    -18.456  0.3470E+02  0.1299E+03
    -18.442  0.3427E+02  0.1304E+03
    -18.428  0.3382E+02  0.1308E+03
    -18.414  0.3335E+02  0.1313E+03
    -18.400  0.3288E+02  0.1318E+03
    -18.386  0.3242E+02  0.1322E+03
    -18.372  0.3198E+02  0.1327E+03
    -18.358  0.3156E+02  0.1331E+03
    -18.344  0.3119E+02  0.1335E+03
    -18.331  0.3087E+02  0.1340E+03
    -18.317  0.3061E+02  0.1344E+03
    -18.303  0.3042E+02  0.1348E+03
    -18.289  0.3032E+02  0.1353E+03
    -18.275  0.3029E+02  0.1357E+03
    -18.261  0.3035E+02  0.1361E+03
    -18.247  0.3051E+02  0.1365E+03
    -18.233  0.3076E+02  0.1370E+03
    -18.219  0.3109E+02  0.1374E+03
    -18.205  0.3152E+02  0.1378E+03
    -18.191  0.3202E+02  0.1383E+03
    -18.177  0.3260E+02  0.1387E+03
    -18.163  0.3325E+02  0.1392E+03
    -18.149  0.3396E+02  0.1397E+03
    -18.135  0.3471E+02  0.1402E+03
    -18.121  0.3550E+02  0.1407E+03
    -18.107  0.3631E+02  0.1412E+03
    -18.093  0.3713E+02  0.1417E+03
    -18.079  0.3795E+02  0.1422E+03
    -18.065  0.3875E+02  0.1428E+03
    -18.051  0.3951E+02  0.1433E+03
    -18.037  0.4024E+02  0.1439E+03
    -18.023  0.4091E+02  0.1444E+03
    -18.009  0.4152E+02  0.1450E+03
    -17.995  0.4206E+02  0.1456E+03
    -17.981  0.4251E+02  0.1462E+03
    -17.967  0.4289E+02  0.1468E+03
    -17.953  0.4317E+02  0.1474E+03
    -17.939  0.4337E+02  0.1480E+03
    -17.925  0.4348E+02  0.1486E+03
    -17.911  0.4350E+02  0.1492E+03
    -17.897  0.4344E+02  0.1498E+03
    -17.883  0.4329E+02  0.1504E+03
    -17.869  0.4308E+02  0.1510E+03
    -17.855  0.4280E+02  0.1516E+03
    -17.841  0.4246E+02  0.1522E+03
    -17.827  0.4207E+02  0.1528E+03
    -17.813  0.4163E+02  0.1534E+03
    -17.800  0.4116E+02  0.1540E+03
    -17.786  0.4067E+02  0.1545E+03
    -17.772  0.4015E+02  0.1551E+03
    -17.758  0.3961E+02  0.1557E+03
    -17.744  0.3907E+02  0.1562E+03
    -17.730  0.3853E+02  0.1567E+03
    -17.716  0.3798E+02  0.1573E+03
    -17.702  0.3744E+02  0.1578E+03
    -17.688  0.3691E+02  0.1583E+03
    -17.674  0.3640E+02  0.1588E+03
    -17.660  0.3589E+02  0.1593E+03
    -17.646  0.3540E+02  0.1598E+03
    -17.632  0.3493E+02  0.1603E+03
    -17.618  0.3448E+02  0.1608E+03
    -17.604  0.3404E+02  0.1613E+03
    -17.590  0.3363E+02  0.1617E+03
    -17.576  0.3324E+02  0.1622E+03
    -17.562  0.3287E+02  0.1627E+03
    -17.548  0.3253E+02  0.1631E+03
    -17.534  0.3222E+02  0.1636E+03
    -17.520  0.3194E+02  0.1640E+03
    -17.506  0.3168E+02  0.1645E+03
    -17.492  0.3146E+02  0.1649E+03
    -17.478  0.3127E+02  0.1653E+03
    -17.464  0.3112E+02  0.1658E+03
    -17.450  0.3101E+02  0.1662E+03
    -17.436  0.3093E+02  0.1666E+03
    -17.422  0.3088E+02  0.1671E+03
    -17.408  0.3087E+02  0.1675E+03
    -17.394  0.3090E+02  0.1679E+03
    -17.380  0.3096E+02  0.1684E+03
    -17.366  0.3105E+02  0.1688E+03
    -17.352  0.3117E+02  0.1692E+03
    -17.338  0.3131E+02  0.1697E+03
    -17.324  0.3147E+02  0.1701E+03
    -17.310  0.3164E+02  0.1705E+03
    -17.296  0.3183E+02  0.1710E+03
    -17.282  0.3202E+02  0.1714E+03
    -17.269  0.3222E+02  0.1719E+03
    -17.255  0.3242E+02  0.1723E+03
    -17.241  0.3262E+02  0.1728E+03
    -17.227  0.3282E+02  0.1733E+03
    -17.213  0.3301E+02  0.1737E+03
    -17.199  0.3319E+02  0.1742E+03
    -17.185  0.3337E+02  0.1746E+03
    -17.171  0.3354E+02  0.1751E+03
    -17.157  0.3369E+02  0.1756E+03
    -17.143  0.3384E+02  0.1761E+03
    -17.129  0.3398E+02  0.1765E+03
    -17.115  0.3410E+02  0.1770E+03
    -17.101  0.3421E+02  0.1775E+03
    -17.087  0.3431E+02  0.1780E+03
    -17.073  0.3439E+02  0.1784E+03
    -17.059  0.3446E+02  0.1789E+03
    -17.045  0.3451E+02  0.1794E+03
    -17.031  0.3453E+02  0.1799E+03
    -17.017  0.3453E+02  0.1804E+03
    -17.003  0.3452E+02  0.1809E+03
    -16.989  0.3448E+02  0.1813E+03
    -16.975  0.3442E+02  0.1818E+03
    -16.961  0.3434E+02  0.1823E+03
    -16.947  0.3425E+02  0.1828E+03
    -16.933  0.3414E+02  0.1833E+03
    -16.919  0.3403E+02  0.1837E+03
    -16.905  0.3392E+02  0.1842E+03
    -16.891  0.3382E+02  0.1847E+03
    -16.877  0.3373E+02  0.1852E+03
    -16.863  0.3365E+02  0.1856E+03
    -16.849  0.3360E+02  0.1861E+03
    -16.835  0.3357E+02  0.1866E+03
    -16.821  0.3357E+02  0.1870E+03
    -16.807  0.3359E+02  0.1875E+03
    -16.793  0.3364E+02  0.1880E+03
    -16.779  0.3372E+02  0.1884E+03
    -16.765  0.3381E+02  0.1889E+03
    -16.751  0.3392E+02  0.1894E+03
    -16.737  0.3404E+02  0.1899E+03
    -16.724  0.3416E+02  0.1903E+03
    -16.710  0.3427E+02  0.1908E+03
    -16.696  0.3437E+02  0.1913E+03
    -16.682  0.3445E+02  0.1918E+03
    -16.668  0.3451E+02  0.1923E+03
    -16.654  0.3454E+02  0.1927E+03
    -16.640  0.3454E+02  0.1932E+03
    -16.626  0.3450E+02  0.1937E+03
    -16.612  0.3443E+02  0.1942E+03
    -16.598  0.3432E+02  0.1947E+03
    -16.584  0.3418E+02  0.1951E+03
    -16.570  0.3401E+02  0.1956E+03
    -16.556  0.3381E+02  0.1961E+03
    -16.542  0.3359E+02  0.1966E+03
    -16.528  0.3335E+02  0.1970E+03
    -16.514  0.3310E+02  0.1975E+03
    -16.500  0.3283E+02  0.1980E+03
    -16.486  0.3255E+02  0.1984E+03
    -16.472  0.3227E+02  0.1989E+03
    -16.458  0.3198E+02  0.1993E+03
    -16.444  0.3170E+02  0.1997E+03
    -16.430  0.3142E+02  0.2002E+03
    -16.416  0.3114E+02  0.2006E+03
    -16.402  0.3087E+02  0.2011E+03
    -16.388  0.3060E+02  0.2015E+03
    -16.374  0.3035E+02  0.2019E+03
    -16.360  0.3011E+02  0.2023E+03
    -16.346  0.2988E+02  0.2027E+03
    -16.332  0.2966E+02  0.2032E+03
    -16.318  0.2946E+02  0.2036E+03
    -16.304  0.2927E+02  0.2040E+03
    -16.290  0.2911E+02  0.2044E+03
    -16.276  0.2896E+02  0.2048E+03
    -16.262  0.2883E+02  0.2052E+03
    -16.248  0.2872E+02  0.2056E+03
    -16.234  0.2864E+02  0.2060E+03
    -16.220  0.2858E+02  0.2064E+03
    -16.206  0.2854E+02  0.2068E+03
    -16.193  0.2854E+02  0.2072E+03
    -16.179  0.2857E+02  0.2076E+03
    -16.165  0.2863E+02  0.2080E+03
    -16.151  0.2874E+02  0.2084E+03
    -16.137  0.2888E+02  0.2088E+03
    -16.123  0.2907E+02  0.2092E+03
    -16.109  0.2931E+02  0.2096E+03
    -16.095  0.2960E+02  0.2100E+03
    -16.081  0.2994E+02  0.2104E+03
    -16.067  0.3033E+02  0.2109E+03
    -16.053  0.3077E+02  0.2113E+03
    -16.039  0.3126E+02  0.2117E+03
    -16.025  0.3179E+02  0.2122E+03
    -16.011  0.3236E+02  0.2126E+03
    -15.997  0.3295E+02  0.2131E+03
    -15.983  0.3356E+02  0.2136E+03
    -15.969  0.3418E+02  0.2140E+03
    -15.955  0.3478E+02  0.2145E+03
    -15.941  0.3537E+02  0.2150E+03
    -15.927  0.3593E+02  0.2155E+03
    -15.913  0.3645E+02  0.2160E+03
    -15.899  0.3691E+02  0.2165E+03
    -15.885  0.3731E+02  0.2171E+03
    -15.871  0.3763E+02  0.2176E+03
    -15.857  0.3788E+02  0.2181E+03
    -15.843  0.3805E+02  0.2187E+03
    -15.829  0.3814E+02  0.2192E+03
    -15.815  0.3815E+02  0.2197E+03
    -15.801  0.3808E+02  0.2203E+03
    -15.787  0.3795E+02  0.2208E+03
    -15.773  0.3777E+02  0.2213E+03
    -15.759  0.3753E+02  0.2218E+03
    -15.745  0.3726E+02  0.2224E+03
    -15.731  0.3696E+02  0.2229E+03
    -15.717  0.3665E+02  0.2234E+03
    -15.703  0.3634E+02  0.2239E+03
    -15.689  0.3605E+02  0.2244E+03
    -15.675  0.3577E+02  0.2249E+03
    -15.662  0.3553E+02  0.2254E+03
    -15.648  0.3532E+02  0.2259E+03
    -15.634  0.3516E+02  0.2264E+03
    -15.620  0.3505E+02  0.2269E+03
    -15.606  0.3498E+02  0.2274E+03
    -15.592  0.3497E+02  0.2278E+03
    -15.578  0.3501E+02  0.2283E+03
    -15.564  0.3509E+02  0.2288E+03
    -15.550  0.3522E+02  0.2293E+03
    -15.536  0.3537E+02  0.2298E+03
    -15.522  0.3556E+02  0.2303E+03
    -15.508  0.3577E+02  0.2308E+03
    -15.494  0.3599E+02  0.2313E+03
    -15.480  0.3622E+02  0.2318E+03
    -15.466  0.3644E+02  0.2323E+03
    -15.452  0.3665E+02  0.2328E+03
    -15.438  0.3685E+02  0.2334E+03
    -15.424  0.3702E+02  0.2339E+03
    -15.410  0.3717E+02  0.2344E+03
    -15.396  0.3728E+02  0.2349E+03
    -15.382  0.3737E+02  0.2354E+03
    -15.368  0.3742E+02  0.2360E+03
    -15.354  0.3744E+02  0.2365E+03
    -15.340  0.3742E+02  0.2370E+03
    -15.326  0.3738E+02  0.2375E+03
    -15.312  0.3732E+02  0.2380E+03
    -15.298  0.3723E+02  0.2386E+03
    -15.284  0.3712E+02  0.2391E+03
    -15.270  0.3701E+02  0.2396E+03
    -15.256  0.3688E+02  0.2401E+03
    -15.242  0.3676E+02  0.2406E+03
    -15.228  0.3663E+02  0.2411E+03
    -15.214  0.3650E+02  0.2417E+03
    -15.200  0.3638E+02  0.2422E+03
    -15.186  0.3627E+02  0.2427E+03
    -15.172  0.3616E+02  0.2432E+03
    -15.158  0.3606E+02  0.2437E+03
    -15.144  0.3596E+02  0.2442E+03
    -15.130  0.3587E+02  0.2447E+03
    -15.117  0.3578E+02  0.2452E+03
    -15.103  0.3569E+02  0.2457E+03
    -15.089  0.3560E+02  0.2462E+03
    -15.075  0.3550E+02  0.2467E+03
    -15.061  0.3539E+02  0.2472E+03
    -15.047  0.3527E+02  0.2477E+03
    -15.033  0.3513E+02  0.2482E+03
    -15.019  0.3498E+02  0.2486E+03
    -15.005  0.3480E+02  0.2491E+03
    -14.991  0.3460E+02  0.2496E+03
    -14.977  0.3437E+02  0.2501E+03
    -14.963  0.3412E+02  0.2506E+03
    -14.949  0.3385E+02  0.2510E+03
    -14.935  0.3354E+02  0.2515E+03
    -14.921  0.3322E+02  0.2520E+03
    -14.907  0.3287E+02  0.2524E+03
    -14.893  0.3251E+02  0.2529E+03
    -14.879  0.3212E+02  0.2533E+03
    -14.865  0.3173E+02  0.2538E+03
    -14.851  0.3133E+02  0.2542E+03
    -14.837  0.3092E+02  0.2546E+03
    -14.823  0.3051E+02  0.2551E+03
    -14.809  0.3011E+02  0.2555E+03
    -14.795  0.2972E+02  0.2559E+03
    -14.781  0.2935E+02  0.2563E+03
    -14.767  0.2899E+02  0.2567E+03
    -14.753  0.2866E+02  0.2571E+03
    -14.739  0.2836E+02  0.2575E+03
    -14.725  0.2810E+02  0.2579E+03
    -14.711  0.2788E+02  0.2583E+03
    -14.697  0.2771E+02  0.2587E+03
    -14.683  0.2758E+02  0.2591E+03
    -14.669  0.2752E+02  0.2595E+03
    -14.655  0.2751E+02  0.2598E+03
    -14.641  0.2757E+02  0.2602E+03
    -14.627  0.2769E+02  0.2606E+03
    -14.613  0.2788E+02  0.2610E+03
    -14.599  0.2814E+02  0.2614E+03
    -14.586  0.2846E+02  0.2618E+03
    -14.572  0.2884E+02  0.2622E+03
    -14.558  0.2928E+02  0.2626E+03
    -14.544  0.2976E+02  0.2630E+03
    -14.530  0.3029E+02  0.2635E+03
    -14.516  0.3084E+02  0.2639E+03
    -14.502  0.3142E+02  0.2643E+03
    -14.488  0.3200E+02  0.2648E+03
    -14.474  0.3258E+02  0.2652E+03
    -14.460  0.3314E+02  0.2657E+03
    -14.446  0.3368E+02  0.2662E+03
    -14.432  0.3418E+02  0.2666E+03
    -14.418  0.3463E+02  0.2671E+03
    -14.404  0.3503E+02  0.2676E+03
    -14.390  0.3536E+02  0.2681E+03
    -14.376  0.3564E+02  0.2686E+03
    -14.362  0.3585E+02  0.2691E+03
    -14.348  0.3600E+02  0.2696E+03
    -14.334  0.3610E+02  0.2701E+03
    -14.320  0.3614E+02  0.2706E+03
    -14.306  0.3613E+02  0.2711E+03
    -14.292  0.3609E+02  0.2716E+03
    -14.278  0.3602E+02  0.2721E+03
    -14.264  0.3594E+02  0.2726E+03
    -14.250  0.3584E+02  0.2731E+03
    -14.236  0.3575E+02  0.2736E+03
    -14.222  0.3568E+02  0.2741E+03
    -14.208  0.3562E+02  0.2746E+03
    -14.194  0.3558E+02  0.2751E+03
    -14.180  0.3558E+02  0.2756E+03
    -14.166  0.3561E+02  0.2761E+03
    -14.152  0.3568E+02  0.2766E+03
    -14.138  0.3578E+02  0.2771E+03
    -14.124  0.3593E+02  0.2776E+03
    -14.110  0.3610E+02  0.2781E+03
    -14.096  0.3631E+02  0.2786E+03
    -14.082  0.3655E+02  0.2791E+03
    -14.068  0.3682E+02  0.2797E+03
    -14.055  0.3710E+02  0.2802E+03
    -14.041  0.3739E+02  0.2807E+03
    -14.027  0.3770E+02  0.2812E+03
    -14.013  0.3800E+02  0.2818E+03
    -13.999  0.3831E+02  0.2823E+03
    -13.985  0.3860E+02  0.2828E+03
    -13.971  0.3888E+02  0.2834E+03
    -13.957  0.3913E+02  0.2839E+03
    -13.943  0.3936E+02  0.2845E+03
    -13.929  0.3956E+02  0.2850E+03
    -13.915  0.3972E+02  0.2856E+03
    -13.901  0.3984E+02  0.2861E+03
    -13.887  0.3991E+02  0.2867E+03
    -13.873  0.3994E+02  0.2872E+03
    -13.859  0.3993E+02  0.2878E+03
    -13.845  0.3987E+02  0.2884E+03
    -13.831  0.3977E+02  0.2889E+03
    -13.817  0.3963E+02  0.2895E+03
    -13.803  0.3945E+02  0.2900E+03
    -13.789  0.3924E+02  0.2906E+03
    -13.775  0.3900E+02  0.2911E+03
    -13.761  0.3875E+02  0.2917E+03
    -13.747  0.3849E+02  0.2922E+03
    -13.733  0.3823E+02  0.2927E+03
    -13.719  0.3797E+02  0.2933E+03
    -13.705  0.3773E+02  0.2938E+03
    -13.691  0.3751E+02  0.2943E+03
    -13.677  0.3732E+02  0.2948E+03
    -13.663  0.3716E+02  0.2954E+03
    -13.649  0.3704E+02  0.2959E+03