 243 243   0   0
  0.5105427E+02  0.2890762E-08  0.2145834E-08  0.2000000E-08  0.5000000E-15
  1.000000000000000E-004
  CAR 
 unknown system                          
      3.09851742    -24.84101698 2000     -3.65533042      1.00000000
    -24.841  0.0000E+00  0.0000E+00
    -24.827  0.0000E+00  0.0000E+00
    -24.813  0.0000E+00  0.0000E+00
    -24.799  0.0000E+00  0.0000E+00
    -24.785  0.0000E+00  0.0000E+00
    -24.771  0.0000E+00  0.0000E+00
    -24.757  0.0000E+00  0.0000E+00
    -24.743  0.0000E+00  0.0000E+00
    -24.729  0.0000E+00  0.0000E+00
    -24.715  0.0000E+00  0.0000E+00
    -24.701  0.0000E+00  0.0000E+00
    -24.687  0.0000E+00  0.0000E+00
    -24.673  0.0000E+00  0.0000E+00
    -24.659  0.0000E+00  0.0000E+00
    -24.645  0.0000E+00  0.0000E+00
    -24.631  0.0000E+00  0.0000E+00
    -24.617  0.0000E+00  0.0000E+00
    -24.603  0.0000E+00  0.0000E+00
    -24.589  0.0000E+00  0.0000E+00
    -24.575  0.0000E+00  0.0000E+00
    -24.561  0.0000E+00  0.0000E+00
    -24.548  0.0000E+00  0.0000E+00
    -24.534  0.0000E+00  0.0000E+00
    -24.520  0.0000E+00  0.0000E+00
    -24.506  0.0000E+00  0.0000E+00
    -24.492  0.0000E+00  0.0000E+00
    -24.478  0.0000E+00  0.0000E+00
    -24.464  0.0000E+00  0.0000E+00
    -24.450  0.0000E+00  0.0000E+00
    -24.436  0.0000E+00  0.0000E+00
    -24.422  0.0000E+00  0.0000E+00
    -24.408  0.0000E+00  0.0000E+00
    -24.394  0.0000E+00  0.0000E+00
    -24.380  0.0000E+00  0.0000E+00
    -24.366  0.0000E+00  0.0000E+00
    -24.352  0.0000E+00  0.0000E+00
    -24.338  0.0000E+00  0.0000E+00
    -24.324  0.0000E+00  0.0000E+00
    -24.310  0.0000E+00  0.0000E+00
    -24.296  0.0000E+00  0.0000E+00
    -24.282  0.0000E+00  0.0000E+00
    -24.268  0.0000E+00  0.0000E+00
    -24.254  0.0000E+00  0.0000E+00
    -24.240  0.0000E+00  0.0000E+00
    -24.226  0.0000E+00  0.0000E+00
    -24.212  0.0000E+00  0.0000E+00
    -24.198  0.0000E+00  0.0000E+00
    -24.184  0.0000E+00  0.0000E+00
    -24.170  0.0000E+00  0.0000E+00
    -24.156  0.0000E+00  0.0000E+00
    -24.142  0.0000E+00  0.0000E+00
    -24.128  0.0000E+00  0.0000E+00
    -24.114  0.0000E+00  0.0000E+00
    -24.100  0.0000E+00  0.0000E+00
    -24.086  0.0000E+00  0.0000E+00
    -24.072  0.0000E+00  0.0000E+00
    -24.058  0.0000E+00  0.0000E+00
    -24.044  0.0000E+00  0.0000E+00
    -24.030  0.0000E+00  0.0000E+00
    -24.016  0.7943E-14  0.1110E-15
    -24.002  0.7943E-14  0.2220E-15
    -23.988  0.1589E-13  0.4441E-15
    -23.974  0.4766E-13  0.1110E-14
    -23.960  0.9532E-13  0.2442E-14
    -23.947  0.2145E-12  0.5440E-14
    -23.933  0.4528E-12  0.1177E-13
    -23.919  0.9850E-12  0.2554E-13
    -23.905  0.2076E-11  0.5455E-13
    -23.891  0.4374E-11  0.1157E-12
    -23.877  0.9095E-11  0.2428E-12
    -23.863  0.1874E-10  0.5047E-12
    -23.849  0.3826E-10  0.1039E-11
    -23.835  0.7732E-10  0.2120E-11
    -23.821  0.1547E-09  0.4283E-11
    -23.807  0.3067E-09  0.8570E-11
    -23.793  0.6020E-09  0.1698E-10
    -23.779  0.1170E-08  0.3334E-10
    -23.765  0.2252E-08  0.6481E-10
    -23.751  0.4293E-08  0.1248E-09
    -23.737  0.8103E-08  0.2381E-09
    -23.723  0.1515E-07  0.4498E-09
    -23.709  0.2804E-07  0.8416E-09
    -23.695  0.5139E-07  0.1560E-08
    -23.681  0.9330E-07  0.2864E-08
    -23.667  0.1677E-06  0.5208E-08
    -23.653  0.2986E-06  0.9381E-08
    -23.639  0.5264E-06  0.1674E-07
    -23.625  0.9190E-06  0.2958E-07
    -23.611  0.1589E-05  0.5179E-07
    -23.597  0.2720E-05  0.8981E-07
    -23.583  0.4612E-05  0.1543E-06
    -23.569  0.7743E-05  0.2625E-06
    -23.555  0.1287E-04  0.4424E-06
    -23.541  0.2120E-04  0.7387E-06
    -23.527  0.3456E-04  0.1222E-05
    -23.513  0.5581E-04  0.2002E-05
    -23.499  0.8924E-04  0.3249E-05
    -23.485  0.1413E-03  0.5224E-05
    -23.471  0.2216E-03  0.8321E-05
    -23.457  0.3441E-03  0.1313E-04
    -23.443  0.5291E-03  0.2053E-04
    -23.429  0.8058E-03  0.3179E-04
    -23.415  0.1215E-02  0.4877E-04
    -23.401  0.1815E-02  0.7414E-04
    -23.387  0.2684E-02  0.1117E-03
    -23.373  0.3931E-02  0.1666E-03
    -23.359  0.5701E-02  0.2463E-03
    -23.346  0.8188E-02  0.3607E-03
    -23.332  0.1165E-01  0.5235E-03
    -23.318  0.1640E-01  0.7527E-03
    -23.304  0.2288E-01  0.1072E-02
    -23.290  0.3160E-01  0.1514E-02
    -23.276  0.4322E-01  0.2118E-02
    -23.262  0.5855E-01  0.2937E-02
    -23.248  0.7854E-01  0.4034E-02
    -23.234  0.1043E+00  0.5493E-02
    -23.220  0.1372E+00  0.7411E-02
    -23.206  0.1788E+00  0.9909E-02
    -23.192  0.2306E+00  0.1313E-01
    -23.178  0.2946E+00  0.1725E-01
    -23.164  0.3728E+00  0.2246E-01
    -23.150  0.4670E+00  0.2899E-01
    -23.136  0.5794E+00  0.3709E-01
    -23.122  0.7118E+00  0.4703E-01
    -23.108  0.8661E+00  0.5914E-01
    -23.094  0.1043E+01  0.7372E-01
    -23.080  0.1245E+01  0.9113E-01
    -23.066  0.1471E+01  0.1117E+00
    -23.052  0.1721E+01  0.1357E+00
    -23.038  0.1995E+01  0.1636E+00
    -23.024  0.2289E+01  0.1956E+00
    -23.010  0.2601E+01  0.2320E+00
    -22.996  0.2927E+01  0.2729E+00
    -22.982  0.3262E+01  0.3185E+00
    -22.968  0.3600E+01  0.3688E+00
    -22.954  0.3935E+01  0.4238E+00
    -22.940  0.4259E+01  0.4833E+00
    -22.926  0.4566E+01  0.5471E+00
    -22.912  0.4848E+01  0.6149E+00
    -22.898  0.5097E+01  0.6861E+00
    -22.884  0.5309E+01  0.7603E+00
    -22.870  0.5477E+01  0.8369E+00
    -22.856  0.5597E+01  0.9151E+00
    -22.842  0.5668E+01  0.9943E+00
    -22.828  0.5687E+01  0.1074E+01
    -22.814  0.5655E+01  0.1153E+01
    -22.800  0.5576E+01  0.1231E+01
    -22.786  0.5454E+01  0.1307E+01
    -22.772  0.5294E+01  0.1381E+01
    -22.758  0.5105E+01  0.1452E+01
    -22.745  0.4894E+01  0.1521E+01
    -22.731  0.4671E+01  0.1586E+01
    -22.717  0.4446E+01  0.1648E+01
    -22.703  0.4230E+01  0.1707E+01
    -22.689  0.4032E+01  0.1764E+01
    -22.675  0.3863E+01  0.1818E+01
    -22.661  0.3731E+01  0.1870E+01
    -22.647  0.3645E+01  0.1921E+01
    -22.633  0.3611E+01  0.1971E+01
    -22.619  0.3635E+01  0.2022E+01
    -22.605  0.3720E+01  0.2074E+01
    -22.591  0.3869E+01  0.2128E+01
    -22.577  0.4084E+01  0.2185E+01
    -22.563  0.4362E+01  0.2246E+01
    -22.549  0.4702E+01  0.2312E+01
    -22.535  0.5099E+01  0.2383E+01
    -22.521  0.5549E+01  0.2461E+01
    -22.507  0.6045E+01  0.2545E+01
    -22.493  0.6580E+01  0.2637E+01
    -22.479  0.7146E+01  0.2737E+01
    -22.465  0.7735E+01  0.2845E+01
    -22.451  0.8338E+01  0.2962E+01
    -22.437  0.8947E+01  0.3087E+01
    -22.423  0.9554E+01  0.3220E+01
    -22.409  0.1015E+02  0.3362E+01
    -22.395  0.1073E+02  0.3512E+01
    -22.381  0.1129E+02  0.3670E+01
    -22.367  0.1183E+02  0.3835E+01
    -22.353  0.1234E+02  0.4008E+01
    -22.339  0.1282E+02  0.4187E+01
    -22.325  0.1328E+02  0.4373E+01
    -22.311  0.1371E+02  0.4564E+01
    -22.297  0.1412E+02  0.4762E+01
    -22.283  0.1451E+02  0.4964E+01
    -22.269  0.1489E+02  0.5173E+01
    -22.255  0.1527E+02  0.5386E+01
    -22.241  0.1565E+02  0.5605E+01
    -22.227  0.1604E+02  0.5829E+01
    -22.213  0.1644E+02  0.6059E+01
    -22.199  0.1687E+02  0.6295E+01
    -22.185  0.1732E+02  0.6537E+01
    -22.171  0.1781E+02  0.6786E+01
    -22.157  0.1834E+02  0.7042E+01
    -22.144  0.1890E+02  0.7306E+01
    -22.130  0.1950E+02  0.7578E+01
    -22.116  0.2013E+02  0.7860E+01
    -22.102  0.2080E+02  0.8151E+01
    -22.088  0.2150E+02  0.8451E+01
    -22.074  0.2222E+02  0.8761E+01
    -22.060  0.2295E+02  0.9082E+01
    -22.046  0.2369E+02  0.9413E+01
    -22.032  0.2444E+02  0.9755E+01
    -22.018  0.2517E+02  0.1011E+02
    -22.004  0.2589E+02  0.1047E+02
    -21.990  0.2658E+02  0.1084E+02
    -21.976  0.2724E+02  0.1122E+02
    -21.962  0.2786E+02  0.1161E+02
    -21.948  0.2844E+02  0.1201E+02
    -21.934  0.2896E+02  0.1241E+02
    -21.920  0.2944E+02  0.1282E+02
    -21.906  0.2987E+02  0.1324E+02
    -21.892  0.3025E+02  0.1366E+02
    -21.878  0.3058E+02  0.1409E+02
    -21.864  0.3086E+02  0.1452E+02
    -21.850  0.3110E+02  0.1496E+02
    -21.836  0.3131E+02  0.1540E+02
    -21.822  0.3148E+02  0.1584E+02
    -21.808  0.3162E+02  0.1628E+02
    -21.794  0.3174E+02  0.1672E+02
    -21.780  0.3184E+02  0.1717E+02
    -21.766  0.3192E+02  0.1761E+02
    -21.752  0.3198E+02  0.1806E+02
    -21.738  0.3203E+02  0.1851E+02
    -21.724  0.3207E+02  0.1895E+02
    -21.710  0.3209E+02  0.1940E+02
    -21.696  0.3211E+02  0.1985E+02
    -21.682  0.3211E+02  0.2030E+02
    -21.668  0.3210E+02  0.2075E+02
    -21.654  0.3208E+02  0.2120E+02
    -21.640  0.3204E+02  0.2165E+02
    -21.626  0.3199E+02  0.2209E+02
    -21.612  0.3192E+02  0.2254E+02
    -21.598  0.3185E+02  0.2298E+02
    -21.584  0.3176E+02  0.2343E+02
    -21.570  0.3166E+02  0.2387E+02
    -21.556  0.3156E+02  0.2431E+02
    -21.543  0.3145E+02  0.2475E+02
    -21.529  0.3135E+02  0.2519E+02
    -21.515  0.3126E+02  0.2563E+02
    -21.501  0.3118E+02  0.2606E+02
    -21.487  0.3111E+02  0.2650E+02
    -21.473  0.3106E+02  0.2693E+02
    -21.459  0.3104E+02  0.2737E+02
    -21.445  0.3104E+02  0.2780E+02
    -21.431  0.3106E+02  0.2823E+02
    -21.417  0.3111E+02  0.2867E+02
    -21.403  0.3119E+02  0.2910E+02
    -21.389  0.3128E+02  0.2954E+02
    -21.375  0.3140E+02  0.2998E+02
    -21.361  0.3154E+02  0.3042E+02
    -21.347  0.3168E+02  0.3086E+02
    -21.333  0.3184E+02  0.3131E+02
    -21.319  0.3200E+02  0.3176E+02
    -21.305  0.3215E+02  0.3220E+02
    -21.291  0.3230E+02  0.3266E+02
    -21.277  0.3243E+02  0.3311E+02
    -21.263  0.3255E+02  0.3356E+02
    -21.249  0.3265E+02  0.3402E+02
    -21.235  0.3273E+02  0.3448E+02
    -21.221  0.3278E+02  0.3494E+02
    -21.207  0.3282E+02  0.3540E+02
    -21.193  0.3283E+02  0.3585E+02
    -21.179  0.3282E+02  0.3631E+02
    -21.165  0.3279E+02  0.3677E+02
    -21.151  0.3274E+02  0.3723E+02
    -21.137  0.3268E+02  0.3769E+02
    -21.123  0.3262E+02  0.3814E+02
    -21.109  0.3255E+02  0.3860E+02
    -21.095  0.3249E+02  0.3905E+02
    -21.081  0.3243E+02  0.3950E+02
    -21.067  0.3239E+02  0.3996E+02
    -21.053  0.3236E+02  0.4041E+02
    -21.039  0.3235E+02  0.4086E+02
    -21.025  0.3238E+02  0.4131E+02
    -21.011  0.3243E+02  0.4177E+02
    -20.997  0.3252E+02  0.4222E+02
    -20.983  0.3264E+02  0.4268E+02
    -20.969  0.3280E+02  0.4314E+02
    -20.955  0.3299E+02  0.4360E+02
    -20.942  0.3322E+02  0.4406E+02
    -20.928  0.3349E+02  0.4453E+02
    -20.914  0.3379E+02  0.4500E+02
    -20.900  0.3411E+02  0.4548E+02
    -20.886  0.3446E+02  0.4596E+02
    -20.872  0.3483E+02  0.4645E+02
    -20.858  0.3521E+02  0.4694E+02
    -20.844  0.3560E+02  0.4744E+02
    -20.830  0.3599E+02  0.4794E+02
    -20.816  0.3638E+02  0.4845E+02
    -20.802  0.3676E+02  0.4896E+02
    -20.788  0.3712E+02  0.4948E+02
    -20.774  0.3746E+02  0.5000E+02
    -20.760  0.3778E+02  0.5053E+02
    -20.746  0.3807E+02  0.5106E+02
    -20.732  0.3833E+02  0.5160E+02
    -20.718  0.3855E+02  0.5214E+02
    -20.704  0.3873E+02  0.5268E+02
    -20.690  0.3888E+02  0.5322E+02
    -20.676  0.3898E+02  0.5377E+02
    -20.662  0.3905E+02  0.5431E+02
    -20.648  0.3909E+02  0.5486E+02
    -20.634  0.3909E+02  0.5541E+02
    -20.620  0.3906E+02  0.5595E+02
    -20.606  0.3901E+02  0.5650E+02
    -20.592  0.3893E+02  0.5704E+02
    -20.578  0.3883E+02  0.5758E+02
    -20.564  0.3872E+02  0.5813E+02
    -20.550  0.3860E+02  0.5866E+02
    -20.536  0.3847E+02  0.5920E+02
    -20.522  0.3834E+02  0.5974E+02
    -20.508  0.3820E+02  0.6027E+02
    -20.494  0.3807E+02  0.6080E+02
    -20.480  0.3795E+02  0.6133E+02
    -20.466  0.3783E+02  0.6186E+02
    -20.452  0.3772E+02  0.6239E+02
    -20.438  0.3761E+02  0.6292E+02
    -20.424  0.3751E+02  0.6344E+02
    -20.410  0.3741E+02  0.6396E+02
    -20.396  0.3732E+02  0.6449E+02
    -20.382  0.3724E+02  0.6501E+02
    -20.368  0.3716E+02  0.6552E+02
    -20.354  0.3708E+02  0.6604E+02
    -20.341  0.3701E+02  0.6656E+02
    -20.327  0.3694E+02  0.6708E+02
    -20.313  0.3689E+02  0.6759E+02
    -20.299  0.3685E+02  0.6811E+02
    -20.285  0.3682E+02  0.6862E+02
    -20.271  0.3681E+02  0.6914E+02
    -20.257  0.3683E+02  0.6965E+02
    -20.243  0.3687E+02  0.7017E+02
    -20.229  0.3694E+02  0.7068E+02
    -20.215  0.3704E+02  0.7120E+02
    -20.201  0.3718E+02  0.7172E+02
    -20.187  0.3735E+02  0.7224E+02
    -20.173  0.3756E+02  0.7277E+02
    -20.159  0.3780E+02  0.7330E+02
    -20.145  0.3808E+02  0.7383E+02
    -20.131  0.3838E+02  0.7436E+02
    -20.117  0.3872E+02  0.7491E+02
    -20.103  0.3907E+02  0.7545E+02
    -20.089  0.3943E+02  0.7600E+02
    -20.075  0.3980E+02  0.7656E+02
    -20.061  0.4017E+02  0.7712E+02
    -20.047  0.4053E+02  0.7769E+02
    -20.033  0.4088E+02  0.7826E+02
    -20.019  0.4120E+02  0.7883E+02
    -20.005  0.4149E+02  0.7941E+02
    -19.991  0.4175E+02  0.8000E+02
    -19.977  0.4197E+02  0.8058E+02
    -19.963  0.4214E+02  0.8117E+02
    -19.949  0.4227E+02  0.8176E+02
    -19.935  0.4235E+02  0.8236E+02
    -19.921  0.4239E+02  0.8295E+02
    -19.907  0.4238E+02  0.8354E+02
    -19.893  0.4232E+02  0.8413E+02
    -19.879  0.4222E+02  0.8472E+02
    -19.865  0.4209E+02  0.8531E+02
    -19.851  0.4191E+02  0.8590E+02
    -19.837  0.4171E+02  0.8648E+02
    -19.823  0.4148E+02  0.8706E+02
    -19.809  0.4123E+02  0.8763E+02
    -19.795  0.4096E+02  0.8821E+02
    -19.781  0.4067E+02  0.8878E+02
    -19.767  0.4037E+02  0.8934E+02
    -19.753  0.4007E+02  0.8990E+02
    -19.740  0.3976E+02  0.9046E+02
    -19.726  0.3945E+02  0.9101E+02
    -19.712  0.3914E+02  0.9155E+02
    -19.698  0.3884E+02  0.9210E+02
    -19.684  0.3855E+02  0.9264E+02
    -19.670  0.3826E+02  0.9317E+02
    -19.656  0.3798E+02  0.9370E+02
    -19.642  0.3772E+02  0.9423E+02
    -19.628  0.3747E+02  0.9475E+02
    -19.614  0.3723E+02  0.9527E+02
    -19.600  0.3701E+02  0.9579E+02
    -19.586  0.3681E+02  0.9630E+02
    -19.572  0.3662E+02  0.9682E+02
    -19.558  0.3645E+02  0.9733E+02
    -19.544  0.3631E+02  0.9783E+02
    -19.530  0.3618E+02  0.9834E+02
    -19.516  0.3607E+02  0.9884E+02
    -19.502  0.3599E+02  0.9935E+02
    -19.488  0.3593E+02  0.9985E+02
    -19.474  0.3589E+02  0.1003E+03
    -19.460  0.3588E+02  0.1009E+03
    -19.446  0.3589E+02  0.1014E+03
    -19.432  0.3592E+02  0.1019E+03
    -19.418  0.3598E+02  0.1024E+03
    -19.404  0.3607E+02  0.1029E+03
    -19.390  0.3619E+02  0.1034E+03
    -19.376  0.3633E+02  0.1039E+03
    -19.362  0.3649E+02  0.1044E+03
    -19.348  0.3668E+02  0.1049E+03
    -19.334  0.3690E+02  0.1054E+03
    -19.320  0.3714E+02  0.1059E+03
    -19.306  0.3739E+02  0.1065E+03
    -19.292  0.3767E+02  0.1070E+03
    -19.278  0.3796E+02  0.1075E+03
    -19.264  0.3825E+02  0.1080E+03
    -19.250  0.3856E+02  0.1086E+03
    -19.236  0.3886E+02  0.1091E+03
    -19.222  0.3916E+02  0.1097E+03
    -19.208  0.3946E+02  0.1102E+03
    -19.194  0.3974E+02  0.1108E+03
    -19.180  0.4001E+02  0.1113E+03
    -19.166  0.4025E+02  0.1119E+03
    -19.152  0.4047E+02  0.1125E+03
    -19.139  0.4066E+02  0.1130E+03
    -19.125  0.4083E+02  0.1136E+03
    -19.111  0.4097E+02  0.1142E+03
    -19.097  0.4108E+02  0.1148E+03
    -19.083  0.4116E+02  0.1153E+03
    -19.069  0.4121E+02  0.1159E+03
    -19.055  0.4125E+02  0.1165E+03
    -19.041  0.4126E+02  0.1171E+03
    -19.027  0.4125E+02  0.1176E+03
    -19.013  0.4124E+02  0.1182E+03
    -18.999  0.4121E+02  0.1188E+03
    -18.985  0.4117E+02  0.1194E+03
    -18.971  0.4113E+02  0.1199E+03
    -18.957  0.4109E+02  0.1205E+03
    -18.943  0.4105E+02  0.1211E+03
    -18.929  0.4101E+02  0.1217E+03
    -18.915  0.4097E+02  0.1222E+03
    -18.901  0.4094E+02  0.1228E+03
    -18.887  0.4090E+02  0.1234E+03
    -18.873  0.4087E+02  0.1239E+03
    -18.859  0.4084E+02  0.1245E+03
    -18.845  0.4080E+02  0.1251E+03
    -18.831  0.4076E+02  0.1257E+03
    -18.817  0.4071E+02  0.1262E+03
    -18.803  0.4066E+02  0.1268E+03
    -18.789  0.4060E+02  0.1274E+03
    -18.775  0.4053E+02  0.1279E+03
    -18.761  0.4046E+02  0.1285E+03
    -18.747  0.4037E+02  0.1291E+03
    -18.733  0.4028E+02  0.1296E+03
    -18.719  0.4018E+02  0.1302E+03
    -18.705  0.4007E+02  0.1307E+03
    -18.691  0.3996E+02  0.1313E+03
    -18.677  0.3985E+02  0.1319E+03
    -18.663  0.3973E+02  0.1324E+03
    -18.649  0.3961E+02  0.1330E+03
    -18.635  0.3949E+02  0.1335E+03
    -18.621  0.3937E+02  0.1341E+03
    -18.607  0.3926E+02  0.1346E+03
    -18.593  0.3915E+02  0.1352E+03
    -18.579  0.3905E+02  0.1357E+03
    -18.565  0.3896E+02  0.1363E+03
    -18.551  0.3888E+02  0.1368E+03
    -18.538  0.3882E+02  0.1373E+03
    -18.524  0.3876E+02  0.1379E+03
    -18.510  0.3873E+02  0.1384E+03
    -18.496  0.3871E+02  0.1390E+03
    -18.482  0.3870E+02  0.1395E+03
    -18.468  0.3871E+02  0.1401E+03
    -18.454  0.3874E+02  0.1406E+03
    -18.440  0.3878E+02  0.1411E+03
    -18.426  0.3883E+02  0.1417E+03
    -18.412  0.3888E+02  0.1422E+03
    -18.398  0.3894E+02  0.1428E+03
    -18.384  0.3900E+02  0.1433E+03
    -18.370  0.3905E+02  0.1439E+03
    -18.356  0.3909E+02  0.1444E+03
    -18.342  0.3912E+02  0.1449E+03
    -18.328  0.3913E+02  0.1455E+03
    -18.314  0.3911E+02  0.1460E+03
    -18.300  0.3907E+02  0.1466E+03
    -18.286  0.3900E+02  0.1471E+03
    -18.272  0.3890E+02  0.1477E+03
    -18.258  0.3877E+02  0.1482E+03
    -18.244  0.3861E+02  0.1488E+03
    -18.230  0.3842E+02  0.1493E+03
    -18.216  0.3820E+02  0.1498E+03
    -18.202  0.3797E+02  0.1504E+03
    -18.188  0.3772E+02  0.1509E+03
    -18.174  0.3747E+02  0.1514E+03
    -18.160  0.3722E+02  0.1519E+03
    -18.146  0.3698E+02  0.1524E+03
    -18.132  0.3675E+02  0.1530E+03
    -18.118  0.3656E+02  0.1535E+03
    -18.104  0.3639E+02  0.1540E+03
    -18.090  0.3627E+02  0.1545E+03
    -18.076  0.3619E+02  0.1550E+03
    -18.062  0.3617E+02  0.1555E+03
    -18.048  0.3619E+02  0.1560E+03
    -18.034  0.3627E+02  0.1565E+03
    -18.020  0.3639E+02  0.1570E+03
    -18.006  0.3657E+02  0.1575E+03
    -17.992  0.3680E+02  0.1580E+03
    -17.978  0.3706E+02  0.1586E+03
    -17.964  0.3736E+02  0.1591E+03
    -17.950  0.3769E+02  0.1596E+03
    -17.936  0.3803E+02  0.1601E+03
    -17.923  0.3839E+02  0.1607E+03
    -17.909  0.3876E+02  0.1612E+03
    -17.895  0.3911E+02  0.1618E+03
    -17.881  0.3946E+02  0.1623E+03
    -17.867  0.3978E+02  0.1629E+03
    -17.853  0.4008E+02  0.1634E+03
    -17.839  0.4034E+02  0.1640E+03
    -17.825  0.4056E+02  0.1646E+03
    -17.811  0.4074E+02  0.1651E+03
    -17.797  0.4088E+02  0.1657E+03
    -17.783  0.4096E+02  0.1663E+03
    -17.769  0.4101E+02  0.1669E+03
    -17.755  0.4100E+02  0.1674E+03
    -17.741  0.4096E+02  0.1680E+03
    -17.727  0.4088E+02  0.1686E+03
    -17.713  0.4077E+02  0.1691E+03
    -17.699  0.4063E+02  0.1697E+03
    -17.685  0.4048E+02  0.1703E+03
    -17.671  0.4031E+02  0.1708E+03
    -17.657  0.4015E+02  0.1714E+03
    -17.643  0.3999E+02  0.1720E+03
    -17.629  0.3984E+02  0.1725E+03
    -17.615  0.3971E+02  0.1731E+03
    -17.601  0.3960E+02  0.1736E+03
    -17.587  0.3952E+02  0.1742E+03
    -17.573  0.3947E+02  0.1747E+03
    -17.559  0.3944E+02  0.1753E+03
    -17.545  0.3945E+02  0.1758E+03
    -17.531  0.3949E+02  0.1764E+03
    -17.517  0.3956E+02  0.1769E+03
    -17.503  0.3966E+02  0.1775E+03
    -17.489  0.3977E+02  0.1780E+03
    -17.475  0.3991E+02  0.1786E+03
    -17.461  0.4006E+02  0.1792E+03
    -17.447  0.4023E+02  0.1797E+03
    -17.433  0.4040E+02  0.1803E+03
    -17.419  0.4058E+02  0.1809E+03
    -17.405  0.4076E+02  0.1814E+03
    -17.391  0.4094E+02  0.1820E+03
    -17.377  0.4112E+02  0.1826E+03
    -17.363  0.4129E+02  0.1832E+03
    -17.349  0.4146E+02  0.1837E+03
    -17.335  0.4162E+02  0.1843E+03
    -17.322  0.4177E+02  0.1849E+03
    -17.308  0.4191E+02  0.1855E+03
    -17.294  0.4205E+02  0.1861E+03
    -17.280  0.4217E+02  0.1867E+03
    -17.266  0.4228E+02  0.1872E+03
    -17.252  0.4238E+02  0.1878E+03
    -17.238  0.4246E+02  0.1884E+03
    -17.224  0.4252E+02  0.1890E+03
    -17.210  0.4256E+02  0.1896E+03
    -17.196  0.4258E+02  0.1902E+03
    -17.182  0.4258E+02  0.1908E+03
    -17.168  0.4256E+02  0.1914E+03
    -17.154  0.4251E+02  0.1920E+03
    -17.140  0.4243E+02  0.1926E+03
    -17.126  0.4232E+02  0.1932E+03
    -17.112  0.4219E+02  0.1938E+03
    -17.098  0.4203E+02  0.1944E+03
    -17.084  0.4184E+02  0.1949E+03
    -17.070  0.4162E+02  0.1955E+03
    -17.056  0.4139E+02  0.1961E+03
    -17.042  0.4113E+02  0.1967E+03
    -17.028  0.4086E+02  0.1973E+03
    -17.014  0.4057E+02  0.1978E+03
    -17.000  0.4028E+02  0.1984E+03
    -16.986  0.3998E+02  0.1989E+03
    -16.972  0.3967E+02  0.1995E+03
    -16.958  0.3937E+02  0.2000E+03
    -16.944  0.3908E+02  0.2006E+03
    -16.930  0.3879E+02  0.2011E+03
    -16.916  0.3852E+02  0.2017E+03
    -16.902  0.3827E+02  0.2022E+03
    -16.888  0.3803E+02  0.2027E+03
    -16.874  0.3782E+02  0.2033E+03
    -16.860  0.3763E+02  0.2038E+03
    -16.846  0.3747E+02  0.2043E+03
    -16.832  0.3733E+02  0.2048E+03
    -16.818  0.3722E+02  0.2054E+03
    -16.804  0.3713E+02  0.2059E+03
    -16.790  0.3707E+02  0.2064E+03
    -16.776  0.3703E+02  0.2069E+03
    -16.762  0.3701E+02  0.2074E+03
    -16.748  0.3701E+02  0.2080E+03
    -16.734  0.3702E+02  0.2085E+03
    -16.721  0.3704E+02  0.2090E+03
    -16.707  0.3707E+02  0.2095E+03
    -16.693  0.3710E+02  0.2100E+03
    -16.679  0.3713E+02  0.2105E+03
    -16.665  0.3715E+02  0.2111E+03
    -16.651  0.3717E+02  0.2116E+03
    -16.637  0.3718E+02  0.2121E+03
    -16.623  0.3717E+02  0.2126E+03
    -16.609  0.3714E+02  0.2131E+03
    -16.595  0.3710E+02  0.2137E+03
    -16.581  0.3704E+02  0.2142E+03
    -16.567  0.3696E+02  0.2147E+03
    -16.553  0.3687E+02  0.2152E+03
    -16.539  0.3676E+02  0.2157E+03
    -16.525  0.3664E+02  0.2162E+03
    -16.511  0.3651E+02  0.2167E+03
    -16.497  0.3637E+02  0.2173E+03
    -16.483  0.3624E+02  0.2178E+03
    -16.469  0.3611E+02  0.2183E+03
    -16.455  0.3598E+02  0.2188E+03
    -16.441  0.3587E+02  0.2193E+03
    -16.427  0.3577E+02  0.2198E+03
    -16.413  0.3569E+02  0.2203E+03
    -16.399  0.3564E+02  0.2208E+03
    -16.385  0.3560E+02  0.2213E+03
    -16.371  0.3559E+02  0.2218E+03
    -16.357  0.3560E+02  0.2223E+03
    -16.343  0.3565E+02  0.2228E+03
    -16.329  0.3571E+02  0.2233E+03
    -16.315  0.3580E+02  0.2238E+03
    -16.301  0.3592E+02  0.2243E+03
    -16.287  0.3606E+02  0.2248E+03
    -16.273  0.3622E+02  0.2253E+03
    -16.259  0.3640E+02  0.2258E+03
    -16.245  0.3660E+02  0.2263E+03
    -16.231  0.3682E+02  0.2268E+03
    -16.217  0.3705E+02  0.2273E+03
    -16.203  0.3729E+02  0.2278E+03
    -16.189  0.3754E+02  0.2284E+03
    -16.175  0.3780E+02  0.2289E+03
    -16.161  0.3806E+02  0.2294E+03
    -16.147  0.3832E+02  0.2300E+03
    -16.133  0.3857E+02  0.2305E+03
    -16.120  0.3882E+02  0.2310E+03
    -16.106  0.3906E+02  0.2316E+03
    -16.092  0.3928E+02  0.2321E+03
    -16.078  0.3949E+02  0.2327E+03
    -16.064  0.3968E+02  0.2332E+03
    -16.050  0.3986E+02  0.2338E+03
    -16.036  0.4001E+02  0.2344E+03
    -16.022  0.4014E+02  0.2349E+03
    -16.008  0.4026E+02  0.2355E+03
    -15.994  0.4037E+02  0.2360E+03
    -15.980  0.4046E+02  0.2366E+03
    -15.966  0.4055E+02  0.2372E+03
    -15.952  0.4064E+02  0.2378E+03
    -15.938  0.4073E+02  0.2383E+03
    -15.924  0.4082E+02  0.2389E+03
    -15.910  0.4092E+02  0.2395E+03
    -15.896  0.4103E+02  0.2400E+03
    -15.882  0.4115E+02  0.2406E+03
    -15.868  0.4129E+02  0.2412E+03
    -15.854  0.4143E+02  0.2418E+03
    -15.840  0.4159E+02  0.2423E+03
    -15.826  0.4174E+02  0.2429E+03
    -15.812  0.4190E+02  0.2435E+03
    -15.798  0.4205E+02  0.2441E+03
    -15.784  0.4220E+02  0.2447E+03
    -15.770  0.4232E+02  0.2453E+03
    -15.756  0.4242E+02  0.2459E+03
    -15.742  0.4249E+02  0.2465E+03
    -15.728  0.4253E+02  0.2471E+03
    -15.714  0.4254E+02  0.2477E+03
    -15.700  0.4250E+02  0.2483E+03
    -15.686  0.4243E+02  0.2488E+03
    -15.672  0.4231E+02  0.2494E+03
    -15.658  0.4216E+02  0.2500E+03
    -15.644  0.4198E+02  0.2506E+03
    -15.630  0.4176E+02  0.2512E+03
    -15.616  0.4152E+02  0.2518E+03
    -15.602  0.4126E+02  0.2524E+03
    -15.588  0.4098E+02  0.2529E+03
    -15.574  0.4068E+02  0.2535E+03
    -15.560  0.4038E+02  0.2541E+03
    -15.546  0.4007E+02  0.2546E+03
    -15.532  0.3977E+02  0.2552E+03
    -15.519  0.3946E+02  0.2557E+03
    -15.505  0.3916E+02  0.2563E+03
    -15.491  0.3886E+02  0.2568E+03
    -15.477  0.3856E+02  0.2574E+03
    -15.463  0.3827E+02  0.2579E+03
    -15.449  0.3799E+02  0.2584E+03
    -15.435  0.3771E+02  0.2590E+03
    -15.421  0.3744E+02  0.2595E+03
    -15.407  0.3717E+02  0.2600E+03
    -15.393  0.3690E+02  0.2605E+03
    -15.379  0.3664E+02  0.2610E+03
    -15.365  0.3639E+02  0.2615E+03
    -15.351  0.3615E+02  0.2620E+03
    -15.337  0.3592E+02  0.2625E+03
    -15.323  0.3571E+02  0.2630E+03
    -15.309  0.3552E+02  0.2635E+03
    -15.295  0.3535E+02  0.2640E+03
    -15.281  0.3521E+02  0.2645E+03
    -15.267  0.3510E+02  0.2650E+03
    -15.253  0.3503E+02  0.2655E+03
    -15.239  0.3499E+02  0.2660E+03
    -15.225  0.3500E+02  0.2665E+03
    -15.211  0.3505E+02  0.2670E+03
    -15.197  0.3514E+02  0.2675E+03
    -15.183  0.3527E+02  0.2680E+03
    -15.169  0.3544E+02  0.2684E+03
    -15.155  0.3566E+02  0.2689E+03
    -15.141  0.3591E+02  0.2694E+03
    -15.127  0.3621E+02  0.2700E+03
    -15.113  0.3653E+02  0.2705E+03
    -15.099  0.3688E+02  0.2710E+03
    -15.085  0.3725E+02  0.2715E+03
    -15.071  0.3765E+02  0.2720E+03
    -15.057  0.3806E+02  0.2726E+03
    -15.043  0.3848E+02  0.2731E+03
    -15.029  0.3891E+02  0.2736E+03
    -15.015  0.3934E+02  0.2742E+03
    -15.001  0.3977E+02  0.2747E+03
    -14.987  0.4019E+02  0.2753E+03
    -14.973  0.4060E+02  0.2759E+03
    -14.959  0.4099E+02  0.2764E+03
    -14.945  0.4137E+02  0.2770E+03
    -14.931  0.4172E+02  0.2776E+03
    -14.918  0.4204E+02  0.2782E+03
    -14.904  0.4234E+02  0.2788E+03
    -14.890  0.4261E+02  0.2794E+03
    -14.876  0.4284E+02  0.2800E+03
    -14.862  0.4304E+02  0.2806E+03
    -14.848  0.4321E+02  0.2812E+03
    -14.834  0.4335E+02  0.2818E+03
    -14.820  0.4346E+02  0.2824E+03
    -14.806  0.4353E+02  0.2830E+03
    -14.792  0.4359E+02  0.2836E+03
    -14.778  0.4362E+02  0.2842E+03
    -14.764  0.4363E+02  0.2848E+03
    -14.750  0.4362E+02  0.2855E+03
    -14.736  0.4360E+02  0.2861E+03
    -14.722  0.4356E+02  0.2867E+03
    -14.708  0.4352E+02  0.2873E+03
    -14.694  0.4347E+02  0.2879E+03
    -14.680  0.4342E+02  0.2885E+03
    -14.666  0.4336E+02  0.2891E+03
    -14.652  0.4330E+02  0.2897E+03
    -14.638  0.4324E+02  0.2903E+03
    -14.624  0.4317E+02  0.2909E+03
    -14.610  0.4310E+02  0.2915E+03
    -14.596  0.4303E+02  0.2921E+03
    -14.582  0.4295E+02  0.2927E+03
    -14.568  0.4286E+02  0.2933E+03
    -14.554  0.4277E+02  0.2939E+03
    -14.540  0.4267E+02  0.2945E+03
    -14.526  0.4257E+02  0.2951E+03
    -14.512  0.4245E+02  0.2957E+03
    -14.498  0.4232E+02  0.2963E+03
    -14.484  0.4218E+02  0.2969E+03
    -14.470  0.4202E+02  0.2975E+03
    -14.456  0.4185E+02  0.2980E+03
    -14.442  0.4167E+02  0.2986E+03
    -14.428  0.4147E+02  0.2992E+03
    -14.414  0.4126E+02  0.2998E+03
    -14.400  0.4103E+02  0.3004E+03
    -14.386  0.4080E+02  0.3009E+03
    -14.372  0.4055E+02  0.3015E+03
    -14.358  0.4031E+02  0.3021E+03
    -14.344  0.4005E+02  0.3026E+03
    -14.330  0.3980E+02  0.3032E+03
    -14.317  0.3956E+02  0.3037E+03
    -14.303  0.3932E+02  0.3043E+03
    -14.289  0.3910E+02  0.3048E+03
    -14.275  0.3891E+02  0.3054E+03
    -14.261  0.3873E+02  0.3059E+03
    -14.247  0.3859E+02  0.3065E+03
    -14.233  0.3849E+02  0.3070E+03
    -14.219  0.3842E+02  0.3075E+03
    -14.205  0.3840E+02  0.3081E+03
    -14.191  0.3842E+02  0.3086E+03
    -14.177  0.3849E+02  0.3091E+03
    -14.163  0.3861E+02  0.3097E+03
    -14.149  0.3877E+02  0.3102E+03
    -14.135  0.3898E+02  0.3108E+03
    -14.121  0.3922E+02  0.3113E+03
    -14.107  0.3949E+02  0.3119E+03
    -14.093  0.3979E+02  0.3124E+03
    -14.079  0.4011E+02  0.3130E+03
    -14.065  0.4044E+02  0.3135E+03
    -14.051  0.4077E+02  0.3141E+03
    -14.037  0.4109E+02  0.3147E+03
    -14.023  0.4139E+02  0.3153E+03
    -14.009  0.4167E+02  0.3159E+03
    -13.995  0.4192E+02  0.3164E+03
    -13.981  0.4212E+02  0.3170E+03
    -13.967  0.4228E+02  0.3176E+03
    -13.953  0.4239E+02  0.3182E+03
    -13.939  0.4245E+02  0.3188E+03
    -13.925  0.4247E+02  0.3194E+03
    -13.911  0.4244E+02  0.3200E+03
    -13.897  0.4236E+02  0.3206E+03
    -13.883  0.4226E+02  0.3212E+03
    -13.869  0.4212E+02  0.3218E+03
    -13.855  0.4197E+02  0.3223E+03
    -13.841  0.4180E+02  0.3229E+03
    -13.827  0.4164E+02  0.3235E+03
    -13.813  0.4149E+02  0.3241E+03
    -13.799  0.4135E+02  0.3247E+03
    -13.785  0.4123E+02  0.3252E+03
    -13.771  0.4114E+02  0.3258E+03
    -13.757  0.4109E+02  0.3264E+03
    -13.743  0.4107E+02  0.3270E+03
    -13.729  0.4108E+02  0.3275E+03
    -13.716  0.4113E+02  0.3281E+03
    -13.702  0.4121E+02  0.3287E+03
    -13.688  0.4131E+02  0.3293E+03
    -13.674  0.4143E+02  0.3299E+03
    -13.660  0.4157E+02  0.3304E+03
    -13.646  0.4172E+02  0.3310E+03
    -13.632  0.4187E+02  0.3316E+03
    -13.618  0.4202E+02  0.3322E+03
    -13.604  0.4217E+02  0.3328E+03
    -13.590  0.4230E+02  0.3334E+03
    -13.576  0.4242E+02  0.3340E+03
    -13.562  0.4252E+02  0.3346E+03
    -13.548  0.4261E+02  0.3352E+03
    -13.534  0.4269E+02  0.3357E+03
    -13.520  0.4275E+02  0.3363E+03
    -13.506  0.4281E+02  0.3369E+03
    -13.492  0.4285E+02  0.3375E+03
    -13.478  0.4290E+02  0.3381E+03
    -13.464  0.4294E+02  0.3387E+03
    -13.450  0.4300E+02  0.3393E+03
    -13.436  0.4306E+02  0.3399E+03
    -13.422  0.4313E+02  0.3405E+03
    -13.408  0.4322E+02  0.3412E+03
    -13.394  0.4332E+02  0.3418E+03
    -13.380  0.4345E+02  0.3424E+03
    -13.366  0.4360E+02  0.3430E+03
    -13.352  0.4377E+02  0.3436E+03
    -13.338  0.4396E+02  0.3442E+03
    -13.324  0.4417E+02  0.3448E+03
    -13.310  0.4440E+02  0.3454E+03