 139 139   0   0
  0.5658301E+02  0.2063268E-08  0.1905966E-08  0.2000000E-08  0.5000000E-15
  1.000000000000000E-004
  CAR 
 unknown system                          
      2.83467058    -25.09217664 2000     -4.05560675      1.00000000
    -25.092  0.0000E+00  0.0000E+00
    -25.078  0.0000E+00  0.0000E+00
    -25.064  0.0000E+00  0.0000E+00
    -25.050  0.0000E+00  0.0000E+00
    -25.036  0.0000E+00  0.0000E+00
    -25.022  0.0000E+00  0.0000E+00
    -25.008  0.0000E+00  0.0000E+00
    -24.994  0.0000E+00  0.0000E+00
    -24.980  0.0000E+00  0.0000E+00
    -24.966  0.0000E+00  0.0000E+00
    -24.952  0.0000E+00  0.0000E+00
    -24.939  0.0000E+00  0.0000E+00
    -24.925  0.0000E+00  0.0000E+00
    -24.911  0.0000E+00  0.0000E+00
    -24.897  0.0000E+00  0.0000E+00
    -24.883  0.0000E+00  0.0000E+00
    -24.869  0.0000E+00  0.0000E+00
    -24.855  0.0000E+00  0.0000E+00
    -24.841  0.0000E+00  0.0000E+00
    -24.827  0.0000E+00  0.0000E+00
    -24.813  0.0000E+00  0.0000E+00
    -24.799  0.0000E+00  0.0000E+00
    -24.785  0.0000E+00  0.0000E+00
    -24.771  0.0000E+00  0.0000E+00
    -24.757  0.0000E+00  0.0000E+00
    -24.743  0.0000E+00  0.0000E+00
    -24.729  0.0000E+00  0.0000E+00
    -24.715  0.0000E+00  0.0000E+00
    -24.701  0.0000E+00  0.0000E+00
    -24.687  0.0000E+00  0.0000E+00
    -24.673  0.0000E+00  0.0000E+00
    -24.659  0.0000E+00  0.0000E+00
    -24.645  0.0000E+00  0.0000E+00
    -24.631  0.0000E+00  0.0000E+00
    -24.617  0.0000E+00  0.0000E+00
    -24.603  0.0000E+00  0.0000E+00
    -24.589  0.0000E+00  0.0000E+00
    -24.575  0.0000E+00  0.0000E+00
    -24.561  0.0000E+00  0.0000E+00
    -24.547  0.0000E+00  0.0000E+00
    -24.533  0.0000E+00  0.0000E+00
    -24.519  0.0000E+00  0.0000E+00
    -24.505  0.0000E+00  0.0000E+00
    -24.491  0.0000E+00  0.0000E+00
    -24.477  0.0000E+00  0.0000E+00
    -24.464  0.0000E+00  0.0000E+00
    -24.450  0.0000E+00  0.0000E+00
    -24.436  0.0000E+00  0.0000E+00
    -24.422  0.0000E+00  0.0000E+00
    -24.408  0.0000E+00  0.0000E+00
    -24.394  0.0000E+00  0.0000E+00
    -24.380  0.0000E+00  0.0000E+00
    -24.366  0.0000E+00  0.0000E+00
    -24.352  0.0000E+00  0.0000E+00
    -24.338  0.0000E+00  0.0000E+00
    -24.324  0.0000E+00  0.0000E+00
    -24.310  0.0000E+00  0.0000E+00
    -24.296  0.0000E+00  0.0000E+00
    -24.282  0.0000E+00  0.0000E+00
    -24.268  0.7947E-14  0.1110E-15
    -24.254  0.7947E-14  0.2220E-15
    -24.240  0.1589E-13  0.4441E-15
    -24.226  0.4768E-13  0.1110E-14
    -24.212  0.9007E-13  0.2368E-14
    -24.198  0.2066E-12  0.5255E-14
    -24.184  0.4397E-12  0.1140E-13
    -24.170  0.9430E-12  0.2457E-13
    -24.156  0.2013E-11  0.5270E-13
    -24.142  0.4222E-11  0.1117E-12
    -24.128  0.8787E-11  0.2344E-12
    -24.114  0.1812E-10  0.4875E-12
    -24.100  0.3698E-10  0.1004E-11
    -24.086  0.7474E-10  0.2048E-11
    -24.072  0.1496E-09  0.4138E-11
    -24.058  0.2966E-09  0.8282E-11
    -24.044  0.5822E-09  0.1642E-10
    -24.030  0.1132E-08  0.3223E-10
    -24.016  0.2179E-08  0.6267E-10
    -24.002  0.4154E-08  0.1207E-09
    -23.989  0.7843E-08  0.2303E-09
    -23.975  0.1466E-07  0.4351E-09
    -23.961  0.2715E-07  0.8144E-09
    -23.947  0.4978E-07  0.1510E-08
    -23.933  0.9039E-07  0.2773E-08
    -23.919  0.1625E-06  0.5044E-08
    -23.905  0.2894E-06  0.9087E-08
    -23.891  0.5104E-06  0.1622E-07
    -23.877  0.8913E-06  0.2867E-07
    -23.863  0.1541E-05  0.5020E-07
    -23.849  0.2640E-05  0.8708E-07
    -23.835  0.4477E-05  0.1496E-06
    -23.821  0.7519E-05  0.2547E-06
    -23.807  0.1251E-04  0.4294E-06
    -23.793  0.2060E-04  0.7172E-06
    -23.779  0.3360E-04  0.1187E-05
    -23.765  0.5427E-04  0.1945E-05
    -23.751  0.8681E-04  0.3157E-05
    -23.737  0.1375E-03  0.5079E-05
    -23.723  0.2157E-03  0.8092E-05
    -23.709  0.3351E-03  0.1277E-04
    -23.695  0.5155E-03  0.1998E-04
    -23.681  0.7854E-03  0.3095E-04
    -23.667  0.1185E-02  0.4750E-04
    -23.653  0.1770E-02  0.7223E-04
    -23.639  0.2619E-02  0.1088E-03
    -23.625  0.3838E-02  0.1624E-03
    -23.611  0.5569E-02  0.2402E-03
    -23.597  0.8002E-02  0.3520E-03
    -23.583  0.1139E-01  0.5111E-03
    -23.569  0.1604E-01  0.7352E-03
    -23.555  0.2239E-01  0.1048E-02
    -23.541  0.3094E-01  0.1480E-02
    -23.527  0.4234E-01  0.2072E-02
    -23.514  0.5739E-01  0.2874E-02
    -23.500  0.7702E-01  0.3950E-02
    -23.486  0.1024E+00  0.5380E-02
    -23.472  0.1347E+00  0.7262E-02
    -23.458  0.1756E+00  0.9715E-02
    -23.444  0.2267E+00  0.1288E-01
    -23.430  0.2897E+00  0.1693E-01
    -23.416  0.3668E+00  0.2205E-01
    -23.402  0.4598E+00  0.2848E-01
    -23.388  0.5707E+00  0.3645E-01
    -23.374  0.7016E+00  0.4625E-01
    -23.360  0.8542E+00  0.5818E-01
    -23.346  0.1030E+01  0.7257E-01
    -23.332  0.1229E+01  0.8975E-01
    -23.318  0.1454E+01  0.1101E+00
    -23.304  0.1702E+01  0.1338E+00
    -23.290  0.1973E+01  0.1614E+00
    -23.276  0.2266E+01  0.1931E+00
    -23.262  0.2577E+01  0.2291E+00
    -23.248  0.2901E+01  0.2696E+00
    -23.234  0.3235E+01  0.3148E+00
    -23.220  0.3573E+01  0.3647E+00
    -23.206  0.3907E+01  0.4193E+00
    -23.192  0.4232E+01  0.4784E+00
    -23.178  0.4538E+01  0.5418E+00
    -23.164  0.4820E+01  0.6092E+00
    -23.150  0.5070E+01  0.6800E+00
    -23.136  0.5281E+01  0.7538E+00
    -23.122  0.5447E+01  0.8299E+00
    -23.108  0.5565E+01  0.9076E+00
    -23.094  0.5630E+01  0.9862E+00
    -23.080  0.5641E+01  0.1065E+01
    -23.066  0.5597E+01  0.1143E+01
    -23.052  0.5501E+01  0.1220E+01
    -23.039  0.5355E+01  0.1295E+01
    -23.025  0.5164E+01  0.1367E+01
    -23.011  0.4934E+01  0.1436E+01
    -22.997  0.4672E+01  0.1501E+01
    -22.983  0.4384E+01  0.1563E+01
    -22.969  0.4081E+01  0.1620E+01
    -22.955  0.3769E+01  0.1672E+01
    -22.941  0.3457E+01  0.1720E+01
    -22.927  0.3153E+01  0.1765E+01
    -22.913  0.2866E+01  0.1805E+01
    -22.899  0.2601E+01  0.1841E+01
    -22.885  0.2365E+01  0.1874E+01
    -22.871  0.2163E+01  0.1904E+01
    -22.857  0.2000E+01  0.1932E+01
    -22.843  0.1879E+01  0.1958E+01
    -22.829  0.1802E+01  0.1984E+01
    -22.815  0.1772E+01  0.2008E+01
    -22.801  0.1788E+01  0.2033E+01
    -22.787  0.1852E+01  0.2059E+01
    -22.773  0.1961E+01  0.2087E+01
    -22.759  0.2114E+01  0.2116E+01
    -22.745  0.2308E+01  0.2148E+01
    -22.731  0.2540E+01  0.2184E+01
    -22.717  0.2805E+01  0.2223E+01
    -22.703  0.3098E+01  0.2266E+01
    -22.689  0.3414E+01  0.2314E+01
    -22.675  0.3747E+01  0.2366E+01
    -22.661  0.4089E+01  0.2423E+01
    -22.647  0.4435E+01  0.2485E+01
    -22.633  0.4777E+01  0.2552E+01
    -22.619  0.5112E+01  0.2624E+01
    -22.605  0.5432E+01  0.2699E+01
    -22.591  0.5734E+01  0.2780E+01
    -22.578  0.6015E+01  0.2864E+01
    -22.564  0.6273E+01  0.2951E+01
    -22.550  0.6510E+01  0.3042E+01
    -22.536  0.6726E+01  0.3136E+01
    -22.522  0.6925E+01  0.3233E+01
    -22.508  0.7113E+01  0.3332E+01
    -22.494  0.7296E+01  0.3434E+01
    -22.480  0.7481E+01  0.3539E+01
    -22.466  0.7676E+01  0.3646E+01
    -22.452  0.7889E+01  0.3756E+01
    -22.438  0.8129E+01  0.3870E+01
    -22.424  0.8401E+01  0.3987E+01
    -22.410  0.8713E+01  0.4109E+01
    -22.396  0.9068E+01  0.4235E+01
    -22.382  0.9469E+01  0.4368E+01
    -22.368  0.9915E+01  0.4506E+01
    -22.354  0.1041E+02  0.4652E+01
    -22.340  0.1094E+02  0.4804E+01
    -22.326  0.1150E+02  0.4965E+01
    -22.312  0.1209E+02  0.5134E+01
    -22.298  0.1269E+02  0.5311E+01
    -22.284  0.1330E+02  0.5497E+01
    -22.270  0.1390E+02  0.5691E+01
    -22.256  0.1449E+02  0.5894E+01
    -22.242  0.1504E+02  0.6104E+01
    -22.228  0.1555E+02  0.6321E+01
    -22.214  0.1602E+02  0.6545E+01
    -22.200  0.1643E+02  0.6774E+01
    -22.186  0.1678E+02  0.7009E+01
    -22.172  0.1706E+02  0.7247E+01
    -22.158  0.1728E+02  0.7488E+01
    -22.144  0.1744E+02  0.7732E+01
    -22.130  0.1754E+02  0.7977E+01
    -22.116  0.1759E+02  0.8223E+01
    -22.103  0.1758E+02  0.8469E+01
    -22.089  0.1755E+02  0.8714E+01
    -22.075  0.1748E+02  0.8958E+01
    -22.061  0.1739E+02  0.9201E+01
    -22.047  0.1729E+02  0.9442E+01
    -22.033  0.1719E+02  0.9682E+01
    -22.019  0.1709E+02  0.9921E+01
    -22.005  0.1700E+02  0.1016E+02
    -21.991  0.1693E+02  0.1039E+02
    -21.977  0.1687E+02  0.1063E+02
    -21.963  0.1684E+02  0.1087E+02
    -21.949  0.1682E+02  0.1110E+02
    -21.935  0.1682E+02  0.1134E+02
    -21.921  0.1683E+02  0.1157E+02
    -21.907  0.1685E+02  0.1181E+02
    -21.893  0.1688E+02  0.1204E+02
    -21.879  0.1690E+02  0.1228E+02
    -21.865  0.1692E+02  0.1251E+02
    -21.851  0.1693E+02  0.1275E+02
    -21.837  0.1693E+02  0.1299E+02
    -21.823  0.1690E+02  0.1322E+02
    -21.809  0.1685E+02  0.1346E+02
    -21.795  0.1677E+02  0.1369E+02
    -21.781  0.1667E+02  0.1393E+02
    -21.767  0.1655E+02  0.1416E+02
    -21.753  0.1639E+02  0.1439E+02
    -21.739  0.1622E+02  0.1461E+02
    -21.725  0.1602E+02  0.1484E+02
    -21.711  0.1580E+02  0.1506E+02
    -21.697  0.1557E+02  0.1528E+02
    -21.683  0.1534E+02  0.1549E+02
    -21.669  0.1510E+02  0.1570E+02
    -21.655  0.1486E+02  0.1591E+02
    -21.641  0.1463E+02  0.1611E+02
    -21.628  0.1441E+02  0.1631E+02
    -21.614  0.1422E+02  0.1651E+02
    -21.600  0.1404E+02  0.1671E+02
    -21.586  0.1390E+02  0.1690E+02
    -21.572  0.1379E+02  0.1710E+02
    -21.558  0.1372E+02  0.1729E+02
    -21.544  0.1369E+02  0.1748E+02
    -21.530  0.1371E+02  0.1767E+02
    -21.516  0.1377E+02  0.1786E+02
    -21.502  0.1388E+02  0.1806E+02
    -21.488  0.1403E+02  0.1825E+02
    -21.474  0.1424E+02  0.1845E+02
    -21.460  0.1448E+02  0.1865E+02
    -21.446  0.1477E+02  0.1886E+02
    -21.432  0.1509E+02  0.1907E+02
    -21.418  0.1544E+02  0.1929E+02
    -21.404  0.1583E+02  0.1951E+02
    -21.390  0.1624E+02  0.1973E+02
    -21.376  0.1666E+02  0.1997E+02
    -21.362  0.1710E+02  0.2021E+02
    -21.348  0.1755E+02  0.2045E+02
    -21.334  0.1799E+02  0.2070E+02
    -21.320  0.1844E+02  0.2096E+02
    -21.306  0.1887E+02  0.2122E+02
    -21.292  0.1928E+02  0.2149E+02
    -21.278  0.1967E+02  0.2177E+02
    -21.264  0.2003E+02  0.2205E+02
    -21.250  0.2036E+02  0.2233E+02
    -21.236  0.2064E+02  0.2262E+02
    -21.222  0.2088E+02  0.2291E+02
    -21.208  0.2106E+02  0.2321E+02
    -21.194  0.2119E+02  0.2350E+02
    -21.180  0.2125E+02  0.2380E+02
    -21.166  0.2125E+02  0.2410E+02
    -21.153  0.2119E+02  0.2439E+02
    -21.139  0.2105E+02  0.2469E+02
    -21.125  0.2086E+02  0.2498E+02
    -21.111  0.2059E+02  0.2527E+02
    -21.097  0.2027E+02  0.2555E+02
    -21.083  0.1990E+02  0.2583E+02
    -21.069  0.1948E+02  0.2610E+02
    -21.055  0.1903E+02  0.2636E+02
    -21.041  0.1856E+02  0.2662E+02
    -21.027  0.1807E+02  0.2688E+02
    -21.013  0.1758E+02  0.2712E+02
    -20.999  0.1710E+02  0.2736E+02
    -20.985  0.1665E+02  0.2759E+02
    -20.971  0.1623E+02  0.2782E+02
    -20.957  0.1585E+02  0.2804E+02
    -20.943  0.1553E+02  0.2826E+02
    -20.929  0.1526E+02  0.2847E+02
    -20.915  0.1507E+02  0.2868E+02
    -20.901  0.1495E+02  0.2889E+02
    -20.887  0.1490E+02  0.2910E+02
    -20.873  0.1493E+02  0.2931E+02
    -20.859  0.1504E+02  0.2952E+02
    -20.845  0.1522E+02  0.2973E+02
    -20.831  0.1548E+02  0.2995E+02
    -20.817  0.1580E+02  0.3017E+02
    -20.803  0.1619E+02  0.3039E+02
    -20.789  0.1664E+02  0.3063E+02
    -20.775  0.1713E+02  0.3087E+02
    -20.761  0.1767E+02  0.3111E+02
    -20.747  0.1824E+02  0.3137E+02
    -20.733  0.1883E+02  0.3163E+02
    -20.719  0.1944E+02  0.3190E+02
    -20.705  0.2005E+02  0.3218E+02
    -20.691  0.2065E+02  0.3247E+02
    -20.678  0.2123E+02  0.3277E+02
    -20.664  0.2179E+02  0.3307E+02
    -20.650  0.2232E+02  0.3338E+02
    -20.636  0.2281E+02  0.3370E+02
    -20.622  0.2325E+02  0.3403E+02
    -20.608  0.2364E+02  0.3436E+02
    -20.594  0.2398E+02  0.3469E+02
    -20.580  0.2427E+02  0.3503E+02
    -20.566  0.2450E+02  0.3537E+02
    -20.552  0.2468E+02  0.3572E+02
    -20.538  0.2482E+02  0.3607E+02
    -20.524  0.2491E+02  0.3641E+02
    -20.510  0.2496E+02  0.3676E+02
    -20.496  0.2497E+02  0.3711E+02
    -20.482  0.2495E+02  0.3746E+02
    -20.468  0.2491E+02  0.3781E+02
    -20.454  0.2485E+02  0.3815E+02
    -20.440  0.2477E+02  0.3850E+02
    -20.426  0.2469E+02  0.3885E+02
    -20.412  0.2460E+02  0.3919E+02
    -20.398  0.2451E+02  0.3953E+02
    -20.384  0.2442E+02  0.3987E+02
    -20.370  0.2433E+02  0.4021E+02
    -20.356  0.2425E+02  0.4055E+02
    -20.342  0.2418E+02  0.4089E+02
    -20.328  0.2412E+02  0.4123E+02
    -20.314  0.2406E+02  0.4156E+02
    -20.300  0.2401E+02  0.4190E+02
    -20.286  0.2398E+02  0.4223E+02
    -20.272  0.2396E+02  0.4257E+02
    -20.258  0.2395E+02  0.4290E+02
    -20.244  0.2395E+02  0.4324E+02
    -20.230  0.2396E+02  0.4357E+02
    -20.217  0.2398E+02  0.4391E+02
    -20.203  0.2401E+02  0.4424E+02
    -20.189  0.2404E+02  0.4458E+02
    -20.175  0.2408E+02  0.4491E+02
    -20.161  0.2412E+02  0.4525E+02
    -20.147  0.2416E+02  0.4559E+02
    -20.133  0.2418E+02  0.4593E+02
    -20.119  0.2420E+02  0.4626E+02
    -20.105  0.2419E+02  0.4660E+02
    -20.091  0.2417E+02  0.4694E+02
    -20.077  0.2411E+02  0.4728E+02
    -20.063  0.2402E+02  0.4761E+02
    -20.049  0.2391E+02  0.4795E+02
    -20.035  0.2375E+02  0.4828E+02
    -20.021  0.2356E+02  0.4861E+02
    -20.007  0.2333E+02  0.4893E+02
    -19.993  0.2307E+02  0.4926E+02
    -19.979  0.2278E+02  0.4957E+02
    -19.965  0.2246E+02  0.4989E+02
    -19.951  0.2212E+02  0.5020E+02
    -19.937  0.2177E+02  0.5050E+02
    -19.923  0.2141E+02  0.5080E+02
    -19.909  0.2104E+02  0.5109E+02
    -19.895  0.2069E+02  0.5138E+02
    -19.881  0.2035E+02  0.5167E+02
    -19.867  0.2002E+02  0.5195E+02
    -19.853  0.1972E+02  0.5222E+02
    -19.839  0.1945E+02  0.5249E+02
    -19.825  0.1920E+02  0.5276E+02
    -19.811  0.1899E+02  0.5303E+02
    -19.797  0.1881E+02  0.5329E+02
    -19.783  0.1867E+02  0.5355E+02
    -19.769  0.1856E+02  0.5381E+02
    -19.755  0.1848E+02  0.5407E+02
    -19.742  0.1843E+02  0.5433E+02
    -19.728  0.1842E+02  0.5458E+02
    -19.714  0.1843E+02  0.5484E+02
    -19.700  0.1846E+02  0.5510E+02
    -19.686  0.1852E+02  0.5536E+02
    -19.672  0.1860E+02  0.5562E+02
    -19.658  0.1870E+02  0.5588E+02
    -19.644  0.1881E+02  0.5614E+02
    -19.630  0.1894E+02  0.5641E+02
    -19.616  0.1908E+02  0.5667E+02
    -19.602  0.1923E+02  0.5694E+02
    -19.588  0.1940E+02  0.5721E+02
    -19.574  0.1957E+02  0.5749E+02
    -19.560  0.1975E+02  0.5776E+02
    -19.546  0.1993E+02  0.5804E+02
    -19.532  0.2012E+02  0.5832E+02
    -19.518  0.2032E+02  0.5860E+02
    -19.504  0.2052E+02  0.5889E+02
    -19.490  0.2072E+02  0.5918E+02
    -19.476  0.2094E+02  0.5947E+02
    -19.462  0.2116E+02  0.5977E+02
    -19.448  0.2138E+02  0.6007E+02
    -19.434  0.2162E+02  0.6037E+02
    -19.420  0.2186E+02  0.6067E+02
    -19.406  0.2210E+02  0.6098E+02
    -19.392  0.2235E+02  0.6130E+02
    -19.378  0.2259E+02  0.6161E+02
    -19.364  0.2284E+02  0.6193E+02
    -19.350  0.2308E+02  0.6225E+02
    -19.336  0.2332E+02  0.6258E+02
    -19.322  0.2354E+02  0.6291E+02
    -19.308  0.2374E+02  0.6324E+02
    -19.294  0.2393E+02  0.6357E+02
    -19.280  0.2410E+02  0.6391E+02
    -19.267  0.2425E+02  0.6425E+02
    -19.253  0.2438E+02  0.6459E+02
    -19.239  0.2450E+02  0.6493E+02
    -19.225  0.2459E+02  0.6528E+02
    -19.211  0.2467E+02  0.6562E+02
    -19.197  0.2474E+02  0.6597E+02
    -19.183  0.2481E+02  0.6631E+02
    -19.169  0.2487E+02  0.6666E+02
    -19.155  0.2495E+02  0.6701E+02
    -19.141  0.2503E+02  0.6736E+02
    -19.127  0.2512E+02  0.6771E+02
    -19.113  0.2522E+02  0.6806E+02
    -19.099  0.2535E+02  0.6842E+02
    -19.085  0.2548E+02  0.6877E+02
    -19.071  0.2563E+02  0.6913E+02
    -19.057  0.2578E+02  0.6949E+02
    -19.043  0.2593E+02  0.6985E+02
    -19.029  0.2608E+02  0.7022E+02
    -19.015  0.2621E+02  0.7058E+02
    -19.001  0.2632E+02  0.7095E+02
    -18.987  0.2640E+02  0.7132E+02
    -18.973  0.2643E+02  0.7169E+02
    -18.959  0.2642E+02  0.7206E+02
    -18.945  0.2635E+02  0.7243E+02
    -18.931  0.2623E+02  0.7279E+02
    -18.917  0.2604E+02  0.7316E+02
    -18.903  0.2580E+02  0.7352E+02
    -18.889  0.2549E+02  0.7387E+02
    -18.875  0.2513E+02  0.7422E+02
    -18.861  0.2473E+02  0.7457E+02
    -18.847  0.2428E+02  0.7491E+02
    -18.833  0.2380E+02  0.7524E+02
    -18.819  0.2330E+02  0.7557E+02
    -18.805  0.2279E+02  0.7588E+02
    -18.792  0.2228E+02  0.7620E+02
    -18.778  0.2178E+02  0.7650E+02
    -18.764  0.2129E+02  0.7680E+02
    -18.750  0.2084E+02  0.7709E+02
    -18.736  0.2042E+02  0.7737E+02
    -18.722  0.2004E+02  0.7765E+02
    -18.708  0.1971E+02  0.7793E+02
    -18.694  0.1942E+02  0.7820E+02
    -18.680  0.1918E+02  0.7847E+02
    -18.666  0.1899E+02  0.7873E+02
    -18.652  0.1884E+02  0.7900E+02
    -18.638  0.1874E+02  0.7926E+02
    -18.624  0.1869E+02  0.7952E+02
    -18.610  0.1868E+02  0.7978E+02
    -18.596  0.1870E+02  0.8004E+02
    -18.582  0.1877E+02  0.8030E+02
    -18.568  0.1887E+02  0.8057E+02
    -18.554  0.1901E+02  0.8083E+02
    -18.540  0.1918E+02  0.8110E+02
    -18.526  0.1938E+02  0.8137E+02
    -18.512  0.1960E+02  0.8165E+02
    -18.498  0.1985E+02  0.8192E+02
    -18.484  0.2011E+02  0.8220E+02
    -18.470  0.2039E+02  0.8249E+02
    -18.456  0.2068E+02  0.8278E+02
    -18.442  0.2097E+02  0.8307E+02
    -18.428  0.2125E+02  0.8337E+02
    -18.414  0.2152E+02  0.8367E+02
    -18.400  0.2176E+02  0.8397E+02
    -18.386  0.2198E+02  0.8428E+02
    -18.372  0.2216E+02  0.8459E+02
    -18.358  0.2231E+02  0.8490E+02
    -18.344  0.2241E+02  0.8521E+02
    -18.330  0.2246E+02  0.8553E+02
    -18.317  0.2246E+02  0.8584E+02
    -18.303  0.2242E+02  0.8615E+02
    -18.289  0.2234E+02  0.8647E+02
    -18.275  0.2221E+02  0.8678E+02
    -18.261  0.2205E+02  0.8708E+02
    -18.247  0.2186E+02  0.8739E+02
    -18.233  0.2165E+02  0.8769E+02
    -18.219  0.2143E+02  0.8799E+02
    -18.205  0.2121E+02  0.8829E+02
    -18.191  0.2099E+02  0.8858E+02
    -18.177  0.2079E+02  0.8887E+02
    -18.163  0.2062E+02  0.8916E+02
    -18.149  0.2047E+02  0.8945E+02
    -18.135  0.2035E+02  0.8973E+02
    -18.121  0.2028E+02  0.9001E+02
    -18.107  0.2025E+02  0.9030E+02
    -18.093  0.2025E+02  0.9058E+02
    -18.079  0.2031E+02  0.9086E+02
    -18.065  0.2040E+02  0.9115E+02
    -18.051  0.2054E+02  0.9143E+02
    -18.037  0.2072E+02  0.9172E+02
    -18.023  0.2094E+02  0.9202E+02
    -18.009  0.2119E+02  0.9231E+02
    -17.995  0.2147E+02  0.9261E+02
    -17.981  0.2177E+02  0.9292E+02
    -17.967  0.2210E+02  0.9323E+02
    -17.953  0.2245E+02  0.9354E+02
    -17.939  0.2281E+02  0.9386E+02
    -17.925  0.2318E+02  0.9418E+02
    -17.911  0.2355E+02  0.9451E+02
    -17.897  0.2392E+02  0.9484E+02
    -17.883  0.2429E+02  0.9518E+02
    -17.869  0.2465E+02  0.9553E+02
    -17.856  0.2500E+02  0.9588E+02
    -17.842  0.2533E+02  0.9623E+02
    -17.828  0.2564E+02  0.9659E+02
    -17.814  0.2592E+02  0.9695E+02
    -17.800  0.2618E+02  0.9732E+02
    -17.786  0.2641E+02  0.9769E+02
    -17.772  0.2660E+02  0.9806E+02
    -17.758  0.2676E+02  0.9843E+02
    -17.744  0.2688E+02  0.9881E+02
    -17.730  0.2695E+02  0.9918E+02
    -17.716  0.2698E+02  0.9956E+02
    -17.702  0.2696E+02  0.9994E+02
    -17.688  0.2690E+02  0.1003E+03
    -17.674  0.2679E+02  0.1007E+03
    -17.660  0.2663E+02  0.1011E+03
    -17.646  0.2643E+02  0.1014E+03
    -17.632  0.2619E+02  0.1018E+03
    -17.618  0.2590E+02  0.1022E+03
    -17.604  0.2559E+02  0.1025E+03
    -17.590  0.2524E+02  0.1029E+03
    -17.576  0.2486E+02  0.1032E+03
    -17.562  0.2447E+02  0.1036E+03
    -17.548  0.2407E+02  0.1039E+03
    -17.534  0.2367E+02  0.1042E+03
    -17.520  0.2326E+02  0.1045E+03
    -17.506  0.2287E+02  0.1049E+03
    -17.492  0.2250E+02  0.1052E+03
    -17.478  0.2215E+02  0.1055E+03
    -17.464  0.2182E+02  0.1058E+03
    -17.450  0.2153E+02  0.1061E+03
    -17.436  0.2128E+02  0.1064E+03
    -17.422  0.2106E+02  0.1067E+03
    -17.408  0.2089E+02  0.1070E+03
    -17.394  0.2076E+02  0.1073E+03
    -17.381  0.2066E+02  0.1076E+03
    -17.367  0.2061E+02  0.1078E+03
    -17.353  0.2058E+02  0.1081E+03
    -17.339  0.2060E+02  0.1084E+03
    -17.325  0.2064E+02  0.1087E+03
    -17.311  0.2070E+02  0.1090E+03
    -17.297  0.2079E+02  0.1093E+03
    -17.283  0.2090E+02  0.1096E+03
    -17.269  0.2103E+02  0.1099E+03
    -17.255  0.2116E+02  0.1102E+03
    -17.241  0.2131E+02  0.1105E+03
    -17.227  0.2147E+02  0.1108E+03
    -17.213  0.2164E+02  0.1111E+03
    -17.199  0.2181E+02  0.1114E+03
    -17.185  0.2199E+02  0.1117E+03
    -17.171  0.2217E+02  0.1120E+03
    -17.157  0.2236E+02  0.1123E+03
    -17.143  0.2256E+02  0.1126E+03
    -17.129  0.2277E+02  0.1129E+03
    -17.115  0.2298E+02  0.1133E+03
    -17.101  0.2320E+02  0.1136E+03
    -17.087  0.2342E+02  0.1139E+03
    -17.073  0.2365E+02  0.1142E+03
    -17.059  0.2388E+02  0.1146E+03
    -17.045  0.2411E+02  0.1149E+03
    -17.031  0.2433E+02  0.1153E+03
    -17.017  0.2454E+02  0.1156E+03
    -17.003  0.2474E+02  0.1159E+03
    -16.989  0.2493E+02  0.1163E+03
    -16.975  0.2509E+02  0.1166E+03
    -16.961  0.2523E+02  0.1170E+03
    -16.947  0.2533E+02  0.1173E+03
    -16.933  0.2541E+02  0.1177E+03
    -16.919  0.2545E+02  0.1181E+03
    -16.906  0.2546E+02  0.1184E+03
    -16.892  0.2543E+02  0.1188E+03
    -16.878  0.2537E+02  0.1191E+03
    -16.864  0.2527E+02  0.1195E+03
    -16.850  0.2515E+02  0.1198E+03
    -16.836  0.2500E+02  0.1202E+03
    -16.822  0.2483E+02  0.1205E+03
    -16.808  0.2465E+02  0.1209E+03
    -16.794  0.2445E+02  0.1212E+03
    -16.780  0.2424E+02  0.1215E+03
    -16.766  0.2403E+02  0.1219E+03
    -16.752  0.2382E+02  0.1222E+03
    -16.738  0.2362E+02  0.1225E+03
    -16.724  0.2342E+02  0.1229E+03
    -16.710  0.2322E+02  0.1232E+03
    -16.696  0.2303E+02  0.1235E+03
    -16.682  0.2285E+02  0.1238E+03
    -16.668  0.2268E+02  0.1242E+03
    -16.654  0.2251E+02  0.1245E+03
    -16.640  0.2234E+02  0.1248E+03
    -16.626  0.2217E+02  0.1251E+03
    -16.612  0.2199E+02  0.1254E+03
    -16.598  0.2181E+02  0.1257E+03
    -16.584  0.2162E+02  0.1260E+03
    -16.570  0.2141E+02  0.1263E+03
    -16.556  0.2119E+02  0.1266E+03
    -16.542  0.2096E+02  0.1269E+03
    -16.528  0.2071E+02  0.1272E+03
    -16.514  0.2045E+02  0.1275E+03
    -16.500  0.2017E+02  0.1277E+03
    -16.486  0.1988E+02  0.1280E+03
    -16.472  0.1958E+02  0.1283E+03
    -16.458  0.1927E+02  0.1286E+03
    -16.444  0.1897E+02  0.1288E+03
    -16.431  0.1867E+02  0.1291E+03
    -16.417  0.1838E+02  0.1294E+03
    -16.403  0.1810E+02  0.1296E+03
    -16.389  0.1784E+02  0.1299E+03
    -16.375  0.1761E+02  0.1301E+03
    -16.361  0.1742E+02  0.1303E+03
    -16.347  0.1725E+02  0.1306E+03
    -16.333  0.1713E+02  0.1308E+03
    -16.319  0.1705E+02  0.1311E+03
    -16.305  0.1701E+02  0.1313E+03
    -16.291  0.1702E+02  0.1315E+03
    -16.277  0.1707E+02  0.1318E+03
    -16.263  0.1717E+02  0.1320E+03
    -16.249  0.1731E+02  0.1323E+03
    -16.235  0.1749E+02  0.1325E+03
    -16.221  0.1771E+02  0.1327E+03
    -16.207  0.1796E+02  0.1330E+03
    -16.193  0.1824E+02  0.1333E+03
    -16.179  0.1854E+02  0.1335E+03
    -16.165  0.1886E+02  0.1338E+03
    -16.151  0.1919E+02  0.1340E+03
    -16.137  0.1952E+02  0.1343E+03
    -16.123  0.1986E+02  0.1346E+03
    -16.109  0.2019E+02  0.1349E+03
    -16.095  0.2051E+02  0.1352E+03
    -16.081  0.2081E+02  0.1355E+03
    -16.067  0.2110E+02  0.1358E+03
    -16.053  0.2136E+02  0.1360E+03
    -16.039  0.2160E+02  0.1364E+03
    -16.025  0.2182E+02  0.1367E+03
    -16.011  0.2200E+02  0.1370E+03
    -15.997  0.2216E+02  0.1373E+03
    -15.983  0.2230E+02  0.1376E+03
    -15.969  0.2240E+02  0.1379E+03
    -15.956  0.2249E+02  0.1382E+03
    -15.942  0.2255E+02  0.1385E+03
    -15.928  0.2260E+02  0.1388E+03
    -15.914  0.2263E+02  0.1392E+03
    -15.900  0.2265E+02  0.1395E+03
    -15.886  0.2266E+02  0.1398E+03
    -15.872  0.2266E+02  0.1401E+03
    -15.858  0.2266E+02  0.1404E+03
    -15.844  0.2266E+02  0.1407E+03
    -15.830  0.2265E+02  0.1411E+03
    -15.816  0.2264E+02  0.1414E+03
    -15.802  0.2263E+02  0.1417E+03
    -15.788  0.2262E+02  0.1420E+03
    -15.774  0.2261E+02  0.1423E+03
    -15.760  0.2259E+02  0.1426E+03
    -15.746  0.2257E+02  0.1430E+03
    -15.732  0.2255E+02  0.1433E+03
    -15.718  0.2251E+02  0.1436E+03
    -15.704  0.2247E+02  0.1439E+03
    -15.690  0.2242E+02  0.1442E+03
    -15.676  0.2235E+02  0.1445E+03
    -15.662  0.2228E+02  0.1448E+03
    -15.648  0.2221E+02  0.1451E+03
    -15.634  0.2212E+02  0.1455E+03
    -15.620  0.2203E+02  0.1458E+03
    -15.606  0.2194E+02  0.1461E+03
    -15.592  0.2185E+02  0.1464E+03
    -15.578  0.2177E+02  0.1467E+03
    -15.564  0.2169E+02  0.1470E+03
    -15.550  0.2162E+02  0.1473E+03
    -15.536  0.2157E+02  0.1476E+03
    -15.522  0.2152E+02  0.1479E+03
    -15.508  0.2150E+02  0.1482E+03
    -15.495  0.2148E+02  0.1485E+03
    -15.481  0.2149E+02  0.1488E+03
    -15.467  0.2150E+02  0.1491E+03
    -15.453  0.2153E+02  0.1494E+03
    -15.439  0.2157E+02  0.1497E+03
    -15.425  0.2162E+02  0.1500E+03
    -15.411  0.2167E+02  0.1503E+03
    -15.397  0.2172E+02  0.1506E+03
    -15.383  0.2178E+02  0.1509E+03
    -15.369  0.2183E+02  0.1512E+03
    -15.355  0.2188E+02  0.1515E+03
    -15.341  0.2192E+02  0.1518E+03
    -15.327  0.2196E+02  0.1521E+03
    -15.313  0.2199E+02  0.1524E+03
    -15.299  0.2201E+02  0.1527E+03
    -15.285  0.2203E+02  0.1530E+03
    -15.271  0.2205E+02  0.1534E+03
    -15.257  0.2206E+02  0.1537E+03
    -15.243  0.2208E+02  0.1540E+03
    -15.229  0.2210E+02  0.1543E+03
    -15.215  0.2214E+02  0.1546E+03
    -15.201  0.2218E+02  0.1549E+03
    -15.187  0.2224E+02  0.1552E+03
    -15.173  0.2231E+02  0.1555E+03
    -15.159  0.2241E+02  0.1558E+03
    -15.145  0.2253E+02  0.1561E+03
    -15.131  0.2268E+02  0.1565E+03
    -15.117  0.2286E+02  0.1568E+03
    -15.103  0.2307E+02  0.1571E+03
    -15.089  0.2331E+02  0.1574E+03
    -15.075  0.2358E+02  0.1578E+03
    -15.061  0.2388E+02  0.1581E+03
    -15.047  0.2421E+02  0.1584E+03
    -15.033  0.2456E+02  0.1588E+03
    -15.020  0.2493E+02  0.1591E+03
    -15.006  0.2532E+02  0.1595E+03
    -14.992  0.2572E+02  0.1598E+03
    -14.978  0.2614E+02  0.1602E+03
    -14.964  0.2656E+02  0.1606E+03
    -14.950  0.2698E+02  0.1610E+03
    -14.936  0.2739E+02  0.1613E+03
    -14.922  0.2779E+02  0.1617E+03
    -14.908  0.2818E+02  0.1621E+03
    -14.894  0.2855E+02  0.1625E+03
    -14.880  0.2889E+02  0.1629E+03
    -14.866  0.2920E+02  0.1633E+03
    -14.852  0.2948E+02  0.1637E+03
    -14.838  0.2972E+02  0.1642E+03
    -14.824  0.2992E+02  0.1646E+03
    -14.810  0.3007E+02  0.1650E+03
    -14.796  0.3017E+02  0.1654E+03
    -14.782  0.3022E+02  0.1658E+03
    -14.768  0.3021E+02  0.1663E+03
    -14.754  0.3015E+02  0.1667E+03
    -14.740  0.3003E+02  0.1671E+03
    -14.726  0.2986E+02  0.1675E+03
    -14.712  0.2962E+02  0.1679E+03
    -14.698  0.2933E+02  0.1683E+03
    -14.684  0.2900E+02  0.1687E+03
    -14.670  0.2861E+02  0.1691E+03
    -14.656  0.2818E+02  0.1695E+03
    -14.642  0.2771E+02  0.1699E+03
    -14.628  0.2721E+02  0.1703E+03
    -14.614  0.2668E+02  0.1707E+03
    -14.600  0.2614E+02  0.1710E+03
    -14.586  0.2559E+02  0.1714E+03
    -14.572  0.2503E+02  0.1717E+03
    -14.558  0.2448E+02  0.1721E+03
    -14.545  0.2395E+02  0.1724E+03
    -14.531  0.2343E+02  0.1728E+03
    -14.517  0.2295E+02  0.1731E+03
    -14.503  0.2250E+02  0.1734E+03
    -14.489  0.2209E+02  0.1737E+03
    -14.475  0.2172E+02  0.1740E+03
    -14.461  0.2140E+02  0.1743E+03
    -14.447  0.2113E+02  0.1746E+03
    -14.433  0.2091E+02  0.1749E+03
    -14.419  0.2074E+02  0.1752E+03
    -14.405  0.2062E+02  0.1755E+03
    -14.391  0.2055E+02  0.1758E+03
    -14.377  0.2052E+02  0.1760E+03
    -14.363  0.2053E+02  0.1763E+03
    -14.349  0.2058E+02  0.1766E+03
    -14.335  0.2066E+02  0.1769E+03
    -14.321  0.2077E+02  0.1772E+03
    -14.307  0.2090E+02  0.1775E+03
    -14.293  0.2105E+02  0.1778E+03
    -14.279  0.2122E+02  0.1781E+03
    -14.265  0.2140E+02  0.1784E+03
    -14.251  0.2159E+02  0.1787E+03
    -14.237  0.2179E+02  0.1790E+03
    -14.223  0.2199E+02  0.1793E+03
    -14.209  0.2220E+02  0.1796E+03
    -14.195  0.2241E+02  0.1799E+03
    -14.181  0.2263E+02  0.1802E+03
    -14.167  0.2284E+02  0.1805E+03
    -14.153  0.2305E+02  0.1809E+03
    -14.139  0.2325E+02  0.1812E+03
    -14.125  0.2345E+02  0.1815E+03
    -14.111  0.2364E+02  0.1818E+03
    -14.097  0.2382E+02  0.1822E+03
    -14.083  0.2399E+02  0.1825E+03
    -14.070  0.2414E+02  0.1829E+03
    -14.056  0.2428E+02  0.1832E+03
    -14.042  0.2440E+02  0.1835E+03
    -14.028  0.2449E+02  0.1839E+03
    -14.014  0.2456E+02  0.1842E+03
    -14.000  0.2461E+02  0.1846E+03
    -13.986  0.2464E+02  0.1849E+03
    -13.972  0.2464E+02  0.1853E+03
    -13.958  0.2462E+02  0.1856E+03
    -13.944  0.2457E+02  0.1859E+03
    -13.930  0.2452E+02  0.1863E+03
    -13.916  0.2444E+02  0.1866E+03
    -13.902  0.2435E+02  0.1870E+03
    -13.888  0.2426E+02  0.1873E+03
    -13.874  0.2415E+02  0.1876E+03
    -13.860  0.2405E+02  0.1880E+03
    -13.846  0.2395E+02  0.1883E+03
    -13.832  0.2385E+02  0.1886E+03
    -13.818  0.2376E+02  0.1890E+03
    -13.804  0.2369E+02  0.1893E+03
    -13.790  0.2363E+02  0.1896E+03
    -13.776  0.2359E+02  0.1900E+03
    -13.762  0.2357E+02  0.1903E+03
    -13.748  0.2357E+02  0.1906E+03
    -13.734  0.2359E+02  0.1910E+03
    -13.720  0.2364E+02  0.1913E+03
    -13.706  0.2371E+02  0.1916E+03
    -13.692  0.2380E+02  0.1919E+03
    -13.678  0.2392E+02  0.1923E+03
    -13.664  0.2405E+02  0.1926E+03
    -13.650  0.2419E+02  0.1930E+03
    -13.636  0.2435E+02  0.1933E+03
    -13.622  0.2451E+02  0.1936E+03
    -13.609  0.2468E+02  0.1940E+03
    -13.595  0.2484E+02  0.1943E+03
    -13.581  0.2500E+02  0.1947E+03
    -13.567  0.2515E+02  0.1950E+03