 109 109   0   0
  0.4728215E+02  0.1928575E-08  0.1336156E-08  0.2000000E-08  0.5000000E-15
  1.000000000000000E-004
  CAR 
 unknown system                          
      3.22505974    -24.48275399 2000     -3.78711472      1.00000000
    -24.483  0.0000E+00  0.0000E+00
    -24.469  0.0000E+00  0.0000E+00
    -24.455  0.0000E+00  0.0000E+00
    -24.441  0.0000E+00  0.0000E+00
    -24.427  0.0000E+00  0.0000E+00
    -24.413  0.0000E+00  0.0000E+00
    -24.400  0.0000E+00  0.0000E+00
    -24.386  0.0000E+00  0.0000E+00
    -24.372  0.0000E+00  0.0000E+00
    -24.358  0.0000E+00  0.0000E+00
    -24.344  0.0000E+00  0.0000E+00
    -24.330  0.0000E+00  0.0000E+00
    -24.316  0.0000E+00  0.0000E+00
    -24.303  0.0000E+00  0.0000E+00
    -24.289  0.0000E+00  0.0000E+00
    -24.275  0.0000E+00  0.0000E+00
    -24.261  0.0000E+00  0.0000E+00
    -24.247  0.0000E+00  0.0000E+00
    -24.233  0.0000E+00  0.0000E+00
    -24.219  0.0000E+00  0.0000E+00
    -24.206  0.0000E+00  0.0000E+00
    -24.192  0.0000E+00  0.0000E+00
    -24.178  0.0000E+00  0.0000E+00
    -24.164  0.0000E+00  0.0000E+00
    -24.150  0.0000E+00  0.0000E+00
    -24.136  0.0000E+00  0.0000E+00
    -24.122  0.0000E+00  0.0000E+00
    -24.109  0.0000E+00  0.0000E+00
    -24.095  0.0000E+00  0.0000E+00
    -24.081  0.0000E+00  0.0000E+00
    -24.067  0.0000E+00  0.0000E+00
    -24.053  0.0000E+00  0.0000E+00
    -24.039  0.0000E+00  0.0000E+00
    -24.025  0.0000E+00  0.0000E+00
    -24.011  0.0000E+00  0.0000E+00
    -23.998  0.0000E+00  0.0000E+00
    -23.984  0.0000E+00  0.0000E+00
    -23.970  0.0000E+00  0.0000E+00
    -23.956  0.0000E+00  0.0000E+00
    -23.942  0.0000E+00  0.0000E+00
    -23.928  0.0000E+00  0.0000E+00
    -23.914  0.0000E+00  0.0000E+00
    -23.901  0.0000E+00  0.0000E+00
    -23.887  0.0000E+00  0.0000E+00
    -23.873  0.0000E+00  0.0000E+00
    -23.859  0.0000E+00  0.0000E+00
    -23.845  0.0000E+00  0.0000E+00
    -23.831  0.0000E+00  0.0000E+00
    -23.817  0.0000E+00  0.0000E+00
    -23.804  0.0000E+00  0.0000E+00
    -23.790  0.0000E+00  0.0000E+00
    -23.776  0.0000E+00  0.0000E+00
    -23.762  0.0000E+00  0.0000E+00
    -23.748  0.0000E+00  0.0000E+00
    -23.734  0.0000E+00  0.0000E+00
    -23.720  0.0000E+00  0.0000E+00
    -23.707  0.0000E+00  0.0000E+00
    -23.693  0.0000E+00  0.0000E+00
    -23.679  0.0000E+00  0.0000E+00
    -23.665  0.8900E-15  0.1234E-16
    -23.651  0.5340E-14  0.8635E-16
    -23.637  0.5340E-14  0.1604E-15
    -23.623  0.1780E-13  0.4071E-15
    -23.610  0.3560E-13  0.9005E-15
    -23.596  0.8010E-13  0.2011E-14
    -23.582  0.1735E-12  0.4416E-14
    -23.568  0.3747E-12  0.9610E-14
    -23.554  0.8019E-12  0.2072E-13
    -23.540  0.1704E-11  0.4435E-13
    -23.526  0.3579E-11  0.9396E-13
    -23.512  0.7462E-11  0.1974E-12
    -23.499  0.1538E-10  0.4106E-12
    -23.485  0.3144E-10  0.8463E-12
    -23.471  0.6363E-10  0.1728E-11
    -23.457  0.1276E-09  0.3496E-11
    -23.443  0.2533E-09  0.7008E-11
    -23.429  0.4983E-09  0.1391E-10
    -23.415  0.9709E-09  0.2737E-10
    -23.402  0.1874E-08  0.5335E-10
    -23.388  0.3583E-08  0.1030E-09
    -23.374  0.6785E-08  0.1970E-09
    -23.360  0.1273E-07  0.3735E-09
    -23.346  0.2365E-07  0.7013E-09
    -23.332  0.4353E-07  0.1305E-08
    -23.318  0.7936E-07  0.2405E-08
    -23.305  0.1433E-06  0.4391E-08
    -23.291  0.2564E-06  0.7945E-08
    -23.277  0.4543E-06  0.1424E-07
    -23.263  0.7975E-06  0.2530E-07
    -23.249  0.1387E-05  0.4452E-07
    -23.235  0.2388E-05  0.7762E-07
    -23.221  0.4075E-05  0.1341E-06
    -23.208  0.6886E-05  0.2296E-06
    -23.194  0.1153E-04  0.3893E-06
    -23.180  0.1912E-04  0.6543E-06
    -23.166  0.3140E-04  0.1090E-05
    -23.152  0.5110E-04  0.1798E-05
    -23.138  0.8236E-04  0.2939E-05
    -23.124  0.1315E-03  0.4762E-05
    -23.111  0.2080E-03  0.7645E-05
    -23.097  0.3258E-03  0.1216E-04
    -23.083  0.5056E-03  0.1917E-04
    -23.069  0.7773E-03  0.2994E-04
    -23.055  0.1184E-02  0.4635E-04
    -23.041  0.1786E-02  0.7110E-04
    -23.027  0.2668E-02  0.1081E-03
    -23.014  0.3949E-02  0.1628E-03
    -23.000  0.5791E-02  0.2431E-03
    -22.986  0.8411E-02  0.3597E-03
    -22.972  0.1210E-01  0.5274E-03
    -22.958  0.1725E-01  0.7665E-03
    -22.944  0.2435E-01  0.1104E-02
    -22.930  0.3406E-01  0.1576E-02
    -22.916  0.4718E-01  0.2230E-02
    -22.903  0.6475E-01  0.3128E-02
    -22.889  0.8803E-01  0.4348E-02
    -22.875  0.1186E+00  0.5991E-02
    -22.861  0.1582E+00  0.8183E-02
    -22.847  0.2090E+00  0.1108E-01
    -22.833  0.2736E+00  0.1487E-01
    -22.819  0.3548E+00  0.1979E-01
    -22.806  0.4558E+00  0.2611E-01
    -22.792  0.5800E+00  0.3415E-01
    -22.778  0.7311E+00  0.4428E-01
    -22.764  0.9129E+00  0.5693E-01
    -22.750  0.1129E+01  0.7259E-01
    -22.736  0.1384E+01  0.9177E-01
    -22.722  0.1680E+01  0.1151E+00
    -22.709  0.2020E+01  0.1430E+00
    -22.695  0.2406E+01  0.1764E+00
    -22.681  0.2839E+01  0.2158E+00
    -22.667  0.3319E+01  0.2618E+00
    -22.653  0.3844E+01  0.3150E+00
    -22.639  0.4409E+01  0.3762E+00
    -22.625  0.5011E+01  0.4456E+00
    -22.612  0.5641E+01  0.5238E+00
    -22.598  0.6291E+01  0.6110E+00
    -22.584  0.6951E+01  0.7073E+00
    -22.570  0.7609E+01  0.8128E+00
    -22.556  0.8251E+01  0.9272E+00
    -22.542  0.8865E+01  0.1050E+01
    -22.528  0.9436E+01  0.1181E+01
    -22.515  0.9953E+01  0.1319E+01
    -22.501  0.1040E+02  0.1463E+01
    -22.487  0.1077E+02  0.1612E+01
    -22.473  0.1106E+02  0.1766E+01
    -22.459  0.1125E+02  0.1922E+01
    -22.445  0.1135E+02  0.2079E+01
    -22.431  0.1135E+02  0.2236E+01
    -22.417  0.1127E+02  0.2392E+01
    -22.404  0.1109E+02  0.2546E+01
    -22.390  0.1085E+02  0.2697E+01
    -22.376  0.1054E+02  0.2843E+01
    -22.362  0.1018E+02  0.2984E+01
    -22.348  0.9787E+01  0.3119E+01
    -22.334  0.9378E+01  0.3249E+01
    -22.320  0.8969E+01  0.3374E+01
    -22.307  0.8576E+01  0.3493E+01
    -22.293  0.8215E+01  0.3606E+01
    -22.279  0.7898E+01  0.3716E+01
    -22.265  0.7637E+01  0.3822E+01
    -22.251  0.7442E+01  0.3925E+01
    -22.237  0.7319E+01  0.4026E+01
    -22.223  0.7270E+01  0.4127E+01
    -22.210  0.7297E+01  0.4228E+01
    -22.196  0.7398E+01  0.4331E+01
    -22.182  0.7568E+01  0.4436E+01
    -22.168  0.7800E+01  0.4544E+01
    -22.154  0.8086E+01  0.4656E+01
    -22.140  0.8415E+01  0.4773E+01
    -22.126  0.8778E+01  0.4894E+01
    -22.113  0.9162E+01  0.5021E+01
    -22.099  0.9558E+01  0.5154E+01
    -22.085  0.9954E+01  0.5292E+01
    -22.071  0.1034E+02  0.5435E+01
    -22.057  0.1071E+02  0.5583E+01
    -22.043  0.1105E+02  0.5737E+01
    -22.029  0.1137E+02  0.5894E+01
    -22.016  0.1165E+02  0.6056E+01
    -22.002  0.1190E+02  0.6221E+01
    -21.988  0.1212E+02  0.6389E+01
    -21.974  0.1230E+02  0.6559E+01
    -21.960  0.1246E+02  0.6732E+01
    -21.946  0.1259E+02  0.6906E+01
    -21.932  0.1270E+02  0.7082E+01
    -21.918  0.1280E+02  0.7260E+01
    -21.905  0.1288E+02  0.7438E+01
    -21.891  0.1296E+02  0.7618E+01
    -21.877  0.1304E+02  0.7799E+01
    -21.863  0.1313E+02  0.7981E+01
    -21.849  0.1321E+02  0.8164E+01
    -21.835  0.1330E+02  0.8348E+01
    -21.821  0.1339E+02  0.8534E+01
    -21.808  0.1349E+02  0.8721E+01
    -21.794  0.1358E+02  0.8909E+01
    -21.780  0.1367E+02  0.9099E+01
    -21.766  0.1375E+02  0.9289E+01
    -21.752  0.1383E+02  0.9481E+01
    -21.738  0.1388E+02  0.9673E+01
    -21.724  0.1392E+02  0.9866E+01
    -21.711  0.1395E+02  0.1006E+02
    -21.697  0.1395E+02  0.1025E+02
    -21.683  0.1393E+02  0.1045E+02
    -21.669  0.1389E+02  0.1064E+02
    -21.655  0.1383E+02  0.1083E+02
    -21.641  0.1376E+02  0.1102E+02
    -21.627  0.1368E+02  0.1121E+02
    -21.614  0.1358E+02  0.1140E+02
    -21.600  0.1349E+02  0.1159E+02
    -21.586  0.1339E+02  0.1177E+02
    -21.572  0.1330E+02  0.1196E+02
    -21.558  0.1322E+02  0.1214E+02
    -21.544  0.1315E+02  0.1232E+02
    -21.530  0.1309E+02  0.1250E+02
    -21.517  0.1306E+02  0.1268E+02
    -21.503  0.1304E+02  0.1286E+02
    -21.489  0.1305E+02  0.1305E+02
    -21.475  0.1307E+02  0.1323E+02
    -21.461  0.1312E+02  0.1341E+02
    -21.447  0.1318E+02  0.1359E+02
    -21.433  0.1327E+02  0.1377E+02
    -21.420  0.1337E+02  0.1396E+02
    -21.406  0.1349E+02  0.1415E+02
    -21.392  0.1362E+02  0.1434E+02
    -21.378  0.1376E+02  0.1453E+02
    -21.364  0.1390E+02  0.1472E+02
    -21.350  0.1406E+02  0.1491E+02
    -21.336  0.1421E+02  0.1511E+02
    -21.322  0.1436E+02  0.1531E+02
    -21.309  0.1451E+02  0.1551E+02
    -21.295  0.1465E+02  0.1571E+02
    -21.281  0.1478E+02  0.1592E+02
    -21.267  0.1489E+02  0.1613E+02
    -21.253  0.1499E+02  0.1633E+02
    -21.239  0.1508E+02  0.1654E+02
    -21.225  0.1514E+02  0.1675E+02
    -21.212  0.1519E+02  0.1696E+02
    -21.198  0.1522E+02  0.1717E+02
    -21.184  0.1523E+02  0.1738E+02
    -21.170  0.1522E+02  0.1760E+02
    -21.156  0.1520E+02  0.1781E+02
    -21.142  0.1518E+02  0.1802E+02
    -21.128  0.1514E+02  0.1823E+02
    -21.115  0.1510E+02  0.1844E+02
    -21.101  0.1507E+02  0.1864E+02
    -21.087  0.1503E+02  0.1885E+02
    -21.073  0.1501E+02  0.1906E+02
    -21.059  0.1499E+02  0.1927E+02
    -21.045  0.1499E+02  0.1948E+02
    -21.031  0.1501E+02  0.1968E+02
    -21.018  0.1503E+02  0.1989E+02
    -21.004  0.1508E+02  0.2010E+02
    -20.990  0.1513E+02  0.2031E+02
    -20.976  0.1520E+02  0.2052E+02
    -20.962  0.1527E+02  0.2073E+02
    -20.948  0.1534E+02  0.2095E+02
    -20.934  0.1542E+02  0.2116E+02
    -20.921  0.1549E+02  0.2138E+02
    -20.907  0.1555E+02  0.2159E+02
    -20.893  0.1560E+02  0.2181E+02
    -20.879  0.1563E+02  0.2202E+02
    -20.865  0.1564E+02  0.2224E+02
    -20.851  0.1563E+02  0.2246E+02
    -20.837  0.1560E+02  0.2267E+02
    -20.823  0.1555E+02  0.2289E+02
    -20.810  0.1547E+02  0.2310E+02
    -20.796  0.1538E+02  0.2332E+02
    -20.782  0.1526E+02  0.2353E+02
    -20.768  0.1514E+02  0.2374E+02
    -20.754  0.1500E+02  0.2395E+02
    -20.740  0.1486E+02  0.2415E+02
    -20.726  0.1472E+02  0.2436E+02
    -20.713  0.1458E+02  0.2456E+02
    -20.699  0.1445E+02  0.2476E+02
    -20.685  0.1434E+02  0.2496E+02
    -20.671  0.1424E+02  0.2515E+02
    -20.657  0.1416E+02  0.2535E+02
    -20.643  0.1410E+02  0.2555E+02
    -20.629  0.1407E+02  0.2574E+02
    -20.616  0.1407E+02  0.2594E+02
    -20.602  0.1409E+02  0.2613E+02
    -20.588  0.1415E+02  0.2633E+02
    -20.574  0.1422E+02  0.2652E+02
    -20.560  0.1432E+02  0.2672E+02
    -20.546  0.1445E+02  0.2692E+02
    -20.532  0.1460E+02  0.2713E+02
    -20.519  0.1476E+02  0.2733E+02
    -20.505  0.1495E+02  0.2754E+02
    -20.491  0.1515E+02  0.2775E+02
    -20.477  0.1536E+02  0.2796E+02
    -20.463  0.1558E+02  0.2818E+02
    -20.449  0.1581E+02  0.2840E+02
    -20.435  0.1605E+02  0.2862E+02
    -20.422  0.1629E+02  0.2884E+02
    -20.408  0.1654E+02  0.2907E+02
    -20.394  0.1678E+02  0.2931E+02
    -20.380  0.1703E+02  0.2954E+02
    -20.366  0.1728E+02  0.2978E+02
    -20.352  0.1753E+02  0.3002E+02
    -20.338  0.1778E+02  0.3027E+02
    -20.325  0.1803E+02  0.3052E+02
    -20.311  0.1827E+02  0.3077E+02
    -20.297  0.1851E+02  0.3103E+02
    -20.283  0.1874E+02  0.3129E+02
    -20.269  0.1895E+02  0.3155E+02
    -20.255  0.1916E+02  0.3182E+02
    -20.241  0.1935E+02  0.3209E+02
    -20.227  0.1951E+02  0.3236E+02
    -20.214  0.1965E+02  0.3263E+02
    -20.200  0.1975E+02  0.3290E+02
    -20.186  0.1981E+02  0.3318E+02
    -20.172  0.1984E+02  0.3345E+02
    -20.158  0.1982E+02  0.3373E+02
    -20.144  0.1974E+02  0.3400E+02
    -20.130  0.1962E+02  0.3427E+02
    -20.117  0.1944E+02  0.3454E+02
    -20.103  0.1921E+02  0.3481E+02
    -20.089  0.1893E+02  0.3507E+02
    -20.075  0.1861E+02  0.3533E+02
    -20.061  0.1824E+02  0.3558E+02
    -20.047  0.1784E+02  0.3583E+02
    -20.033  0.1741E+02  0.3607E+02
    -20.020  0.1696E+02  0.3631E+02
    -20.006  0.1650E+02  0.3653E+02
    -19.992  0.1604E+02  0.3676E+02
    -19.978  0.1559E+02  0.3697E+02
    -19.964  0.1516E+02  0.3718E+02
    -19.950  0.1475E+02  0.3739E+02
    -19.936  0.1439E+02  0.3759E+02
    -19.923  0.1406E+02  0.3778E+02
    -19.909  0.1379E+02  0.3797E+02
    -19.895  0.1357E+02  0.3816E+02
    -19.881  0.1340E+02  0.3835E+02
    -19.867  0.1329E+02  0.3853E+02
    -19.853  0.1323E+02  0.3871E+02
    -19.839  0.1323E+02  0.3890E+02
    -19.826  0.1328E+02  0.3908E+02
    -19.812  0.1337E+02  0.3927E+02
    -19.798  0.1351E+02  0.3945E+02
    -19.784  0.1368E+02  0.3964E+02
    -19.770  0.1389E+02  0.3984E+02
    -19.756  0.1413E+02  0.4003E+02
    -19.742  0.1439E+02  0.4023E+02
    -19.728  0.1468E+02  0.4043E+02
    -19.715  0.1498E+02  0.4064E+02
    -19.701  0.1529E+02  0.4085E+02
    -19.687  0.1561E+02  0.4107E+02
    -19.673  0.1595E+02  0.4129E+02
    -19.659  0.1628E+02  0.4152E+02
    -19.645  0.1663E+02  0.4175E+02
    -19.631  0.1697E+02  0.4198E+02
    -19.618  0.1732E+02  0.4222E+02
    -19.604  0.1767E+02  0.4247E+02
    -19.590  0.1801E+02  0.4272E+02
    -19.576  0.1835E+02  0.4297E+02
    -19.562  0.1868E+02  0.4323E+02
    -19.548  0.1899E+02  0.4349E+02
    -19.534  0.1930E+02  0.4376E+02
    -19.521  0.1959E+02  0.4403E+02
    -19.507  0.1985E+02  0.4431E+02
    -19.493  0.2010E+02  0.4459E+02
    -19.479  0.2032E+02  0.4487E+02
    -19.465  0.2051E+02  0.4515E+02
    -19.451  0.2067E+02  0.4544E+02
    -19.437  0.2080E+02  0.4573E+02
    -19.424  0.2089E+02  0.4602E+02
    -19.410  0.2094E+02  0.4631E+02
    -19.396  0.2096E+02  0.4660E+02
    -19.382  0.2095E+02  0.4689E+02
    -19.368  0.2089E+02  0.4718E+02
    -19.354  0.2080E+02  0.4747E+02
    -19.340  0.2067E+02  0.4775E+02
    -19.327  0.2050E+02  0.4804E+02
    -19.313  0.2030E+02  0.4832E+02
    -19.299  0.2006E+02  0.4860E+02
    -19.285  0.1980E+02  0.4887E+02
    -19.271  0.1950E+02  0.4914E+02
    -19.257  0.1918E+02  0.4941E+02
    -19.243  0.1884E+02  0.4967E+02
    -19.229  0.1849E+02  0.4992E+02
    -19.216  0.1812E+02  0.5018E+02
    -19.202  0.1774E+02  0.5042E+02
    -19.188  0.1736E+02  0.5066E+02
    -19.174  0.1699E+02  0.5090E+02
    -19.160  0.1662E+02  0.5113E+02
    -19.146  0.1626E+02  0.5135E+02
    -19.132  0.1592E+02  0.5157E+02
    -19.119  0.1559E+02  0.5179E+02
    -19.105  0.1529E+02  0.5200E+02
    -19.091  0.1501E+02  0.5221E+02
    -19.077  0.1477E+02  0.5241E+02
    -19.063  0.1454E+02  0.5262E+02
    -19.049  0.1435E+02  0.5282E+02
    -19.035  0.1419E+02  0.5301E+02
    -19.022  0.1406E+02  0.5321E+02
    -19.008  0.1395E+02  0.5340E+02
    -18.994  0.1387E+02  0.5359E+02
    -18.980  0.1382E+02  0.5378E+02
    -18.966  0.1379E+02  0.5397E+02
    -18.952  0.1378E+02  0.5417E+02
    -18.938  0.1379E+02  0.5436E+02
    -18.925  0.1383E+02  0.5455E+02
    -18.911  0.1389E+02  0.5474E+02
    -18.897  0.1396E+02  0.5493E+02
    -18.883  0.1405E+02  0.5513E+02
    -18.869  0.1416E+02  0.5533E+02
    -18.855  0.1429E+02  0.5552E+02
    -18.841  0.1443E+02  0.5572E+02
    -18.828  0.1459E+02  0.5593E+02
    -18.814  0.1476E+02  0.5613E+02
    -18.800  0.1495E+02  0.5634E+02
    -18.786  0.1516E+02  0.5655E+02
    -18.772  0.1537E+02  0.5676E+02
    -18.758  0.1560E+02  0.5698E+02
    -18.744  0.1583E+02  0.5720E+02
    -18.731  0.1607E+02  0.5742E+02
    -18.717  0.1631E+02  0.5765E+02
    -18.703  0.1656E+02  0.5787E+02
    -18.689  0.1680E+02  0.5811E+02
    -18.675  0.1703E+02  0.5834E+02
    -18.661  0.1726E+02  0.5858E+02
    -18.647  0.1747E+02  0.5883E+02
    -18.633  0.1767E+02  0.5907E+02
    -18.620  0.1784E+02  0.5932E+02
    -18.606  0.1799E+02  0.5957E+02
    -18.592  0.1812E+02  0.5982E+02
    -18.578  0.1822E+02  0.6007E+02
    -18.564  0.1828E+02  0.6032E+02
    -18.550  0.1831E+02  0.6058E+02
    -18.536  0.1830E+02  0.6083E+02
    -18.523  0.1826E+02  0.6108E+02
    -18.509  0.1819E+02  0.6134E+02
    -18.495  0.1808E+02  0.6159E+02
    -18.481  0.1794E+02  0.6184E+02
    -18.467  0.1778E+02  0.6208E+02
    -18.453  0.1759E+02  0.6233E+02
    -18.439  0.1738E+02  0.6257E+02
    -18.426  0.1716E+02  0.6280E+02
    -18.412  0.1694E+02  0.6304E+02
    -18.398  0.1671E+02  0.6327E+02
    -18.384  0.1648E+02  0.6350E+02
    -18.370  0.1627E+02  0.6373E+02
    -18.356  0.1608E+02  0.6395E+02
    -18.342  0.1590E+02  0.6417E+02
    -18.329  0.1575E+02  0.6439E+02
    -18.315  0.1562E+02  0.6460E+02
    -18.301  0.1552E+02  0.6482E+02
    -18.287  0.1546E+02  0.6503E+02
    -18.273  0.1542E+02  0.6525E+02
    -18.259  0.1541E+02  0.6546E+02
    -18.245  0.1542E+02  0.6567E+02
    -18.232  0.1546E+02  0.6589E+02
    -18.218  0.1552E+02  0.6610E+02
    -18.204  0.1559E+02  0.6632E+02
    -18.190  0.1568E+02  0.6654E+02
    -18.176  0.1577E+02  0.6676E+02
    -18.162  0.1587E+02  0.6698E+02
    -18.148  0.1596E+02  0.6720E+02
    -18.134  0.1606E+02  0.6742E+02
    -18.121  0.1615E+02  0.6764E+02
    -18.107  0.1622E+02  0.6787E+02
    -18.093  0.1629E+02  0.6809E+02
    -18.079  0.1635E+02  0.6832E+02
    -18.065  0.1640E+02  0.6855E+02
    -18.051  0.1643E+02  0.6878E+02
    -18.037  0.1646E+02  0.6900E+02
    -18.024  0.1648E+02  0.6923E+02
    -18.010  0.1649E+02  0.6946E+02
    -17.996  0.1649E+02  0.6969E+02
    -17.982  0.1649E+02  0.6992E+02
    -17.968  0.1650E+02  0.7015E+02
    -17.954  0.1650E+02  0.7037E+02
    -17.940  0.1651E+02  0.7060E+02
    -17.927  0.1652E+02  0.7083E+02
    -17.913  0.1653E+02  0.7106E+02
    -17.899  0.1656E+02  0.7129E+02
    -17.885  0.1658E+02  0.7152E+02
    -17.871  0.1662E+02  0.7175E+02
    -17.857  0.1665E+02  0.7198E+02
    -17.843  0.1668E+02  0.7221E+02
    -17.830  0.1672E+02  0.7245E+02
    -17.816  0.1675E+02  0.7268E+02
    -17.802  0.1678E+02  0.7291E+02
    -17.788  0.1680E+02  0.7314E+02
    -17.774  0.1681E+02  0.7338E+02
    -17.760  0.1681E+02  0.7361E+02
    -17.746  0.1681E+02  0.7384E+02
    -17.733  0.1681E+02  0.7407E+02
    -17.719  0.1680E+02  0.7431E+02
    -17.705  0.1679E+02  0.7454E+02
    -17.691  0.1678E+02  0.7477E+02
    -17.677  0.1678E+02  0.7501E+02
    -17.663  0.1679E+02  0.7524E+02
    -17.649  0.1681E+02  0.7547E+02
    -17.636  0.1685E+02  0.7570E+02
    -17.622  0.1691E+02  0.7594E+02
    -17.608  0.1700E+02  0.7617E+02
    -17.594  0.1711E+02  0.7641E+02
    -17.580  0.1724E+02  0.7665E+02
    -17.566  0.1740E+02  0.7689E+02
    -17.552  0.1758E+02  0.7714E+02
    -17.538  0.1778E+02  0.7738E+02
    -17.525  0.1799E+02  0.7763E+02
    -17.511  0.1822E+02  0.7788E+02
    -17.497  0.1845E+02  0.7814E+02
    -17.483  0.1869E+02  0.7840E+02
    -17.469  0.1892E+02  0.7866E+02
    -17.455  0.1914E+02  0.7893E+02
    -17.441  0.1935E+02  0.7919E+02
    -17.428  0.1955E+02  0.7947E+02
    -17.414  0.1972E+02  0.7974E+02
    -17.400  0.1987E+02  0.8001E+02
    -17.386  0.1999E+02  0.8029E+02
    -17.372  0.2009E+02  0.8057E+02
    -17.358  0.2016E+02  0.8085E+02
    -17.344  0.2021E+02  0.8113E+02
    -17.331  0.2023E+02  0.8141E+02
    -17.317  0.2023E+02  0.8169E+02
    -17.303  0.2021E+02  0.8197E+02
    -17.289  0.2017E+02  0.8225E+02
    -17.275  0.2011E+02  0.8253E+02
    -17.261  0.2005E+02  0.8281E+02
    -17.247  0.1997E+02  0.8308E+02
    -17.234  0.1989E+02  0.8336E+02
    -17.220  0.1980E+02  0.8363E+02
    -17.206  0.1971E+02  0.8391E+02
    -17.192  0.1962E+02  0.8418E+02
    -17.178  0.1952E+02  0.8445E+02
    -17.164  0.1942E+02  0.8472E+02
    -17.150  0.1932E+02  0.8499E+02
    -17.137  0.1922E+02  0.8525E+02
    -17.123  0.1911E+02  0.8552E+02
    -17.109  0.1900E+02  0.8578E+02
    -17.095  0.1889E+02  0.8604E+02
    -17.081  0.1876E+02  0.8630E+02
    -17.067  0.1863E+02  0.8656E+02
    -17.053  0.1848E+02  0.8682E+02
    -17.039  0.1833E+02  0.8707E+02
    -17.026  0.1817E+02  0.8732E+02
    -17.012  0.1800E+02  0.8757E+02
    -16.998  0.1782E+02  0.8782E+02
    -16.984  0.1764E+02  0.8806E+02
    -16.970  0.1746E+02  0.8831E+02
    -16.956  0.1727E+02  0.8855E+02
    -16.942  0.1710E+02  0.8878E+02
    -16.929  0.1694E+02  0.8902E+02
    -16.915  0.1679E+02  0.8925E+02
    -16.901  0.1666E+02  0.8948E+02
    -16.887  0.1656E+02  0.8971E+02
    -16.873  0.1648E+02  0.8994E+02
    -16.859  0.1644E+02  0.9017E+02
    -16.845  0.1643E+02  0.9039E+02
    -16.832  0.1645E+02  0.9062E+02
    -16.818  0.1651E+02  0.9085E+02
    -16.804  0.1661E+02  0.9108E+02
    -16.790  0.1674E+02  0.9131E+02
    -16.776  0.1690E+02  0.9155E+02
    -16.762  0.1709E+02  0.9178E+02
    -16.748  0.1731E+02  0.9202E+02
    -16.735  0.1754E+02  0.9227E+02
    -16.721  0.1779E+02  0.9251E+02
    -16.707  0.1805E+02  0.9276E+02
    -16.693  0.1831E+02  0.9302E+02
    -16.679  0.1858E+02  0.9328E+02
    -16.665  0.1884E+02  0.9354E+02
    -16.651  0.1909E+02  0.9380E+02
    -16.638  0.1934E+02  0.9407E+02
    -16.624  0.1957E+02  0.9434E+02
    -16.610  0.1978E+02  0.9461E+02
    -16.596  0.1997E+02  0.9489E+02
    -16.582  0.2015E+02  0.9517E+02
    -16.568  0.2030E+02  0.9545E+02
    -16.554  0.2042E+02  0.9574E+02
    -16.540  0.2053E+02  0.9602E+02
    -16.527  0.2060E+02  0.9631E+02
    -16.513  0.2065E+02  0.9659E+02
    -16.499  0.2066E+02  0.9688E+02
    -16.485  0.2065E+02  0.9716E+02
    -16.471  0.2062E+02  0.9745E+02
    -16.457  0.2055E+02  0.9773E+02
    -16.443  0.2045E+02  0.9802E+02
    -16.430  0.2033E+02  0.9830E+02
    -16.416  0.2019E+02  0.9858E+02
    -16.402  0.2002E+02  0.9886E+02
    -16.388  0.1982E+02  0.9913E+02
    -16.374  0.1961E+02  0.9940E+02
    -16.360  0.1939E+02  0.9967E+02
    -16.346  0.1915E+02  0.9994E+02
    -16.333  0.1891E+02  0.1002E+03
    -16.319  0.1866E+02  0.1005E+03
    -16.305  0.1841E+02  0.1007E+03
    -16.291  0.1816E+02  0.1010E+03
    -16.277  0.1792E+02  0.1012E+03
    -16.263  0.1769E+02  0.1015E+03
    -16.249  0.1748E+02  0.1017E+03
    -16.236  0.1727E+02  0.1019E+03
    -16.222  0.1709E+02  0.1022E+03
    -16.208  0.1693E+02  0.1024E+03
    -16.194  0.1678E+02  0.1026E+03
    -16.180  0.1666E+02  0.1029E+03
    -16.166  0.1656E+02  0.1031E+03
    -16.152  0.1648E+02  0.1033E+03
    -16.139  0.1643E+02  0.1036E+03
    -16.125  0.1639E+02  0.1038E+03
    -16.111  0.1638E+02  0.1040E+03
    -16.097  0.1638E+02  0.1042E+03
    -16.083  0.1640E+02  0.1045E+03
    -16.069  0.1643E+02  0.1047E+03
    -16.055  0.1648E+02  0.1049E+03
    -16.042  0.1654E+02  0.1052E+03
    -16.028  0.1661E+02  0.1054E+03
    -16.014  0.1668E+02  0.1056E+03
    -16.000  0.1676E+02  0.1058E+03
    -15.986  0.1683E+02  0.1061E+03
    -15.972  0.1692E+02  0.1063E+03
    -15.958  0.1700E+02  0.1066E+03
    -15.944  0.1708E+02  0.1068E+03
    -15.931  0.1716E+02  0.1070E+03
    -15.917  0.1723E+02  0.1073E+03
    -15.903  0.1731E+02  0.1075E+03
    -15.889  0.1738E+02  0.1077E+03
    -15.875  0.1745E+02  0.1080E+03
    -15.861  0.1752E+02  0.1082E+03
    -15.847  0.1758E+02  0.1085E+03
    -15.834  0.1764E+02  0.1087E+03
    -15.820  0.1769E+02  0.1090E+03
    -15.806  0.1773E+02  0.1092E+03
    -15.792  0.1777E+02  0.1095E+03
    -15.778  0.1779E+02  0.1097E+03
    -15.764  0.1780E+02  0.1100E+03
    -15.750  0.1779E+02  0.1102E+03
    -15.737  0.1777E+02  0.1104E+03
    -15.723  0.1773E+02  0.1107E+03
    -15.709  0.1766E+02  0.1109E+03
    -15.695  0.1758E+02  0.1112E+03
    -15.681  0.1748E+02  0.1114E+03
    -15.667  0.1737E+02  0.1117E+03
    -15.653  0.1724E+02  0.1119E+03
    -15.640  0.1710E+02  0.1121E+03
    -15.626  0.1695E+02  0.1124E+03
    -15.612  0.1681E+02  0.1126E+03
    -15.598  0.1667E+02  0.1128E+03
    -15.584  0.1654E+02  0.1131E+03
    -15.570  0.1642E+02  0.1133E+03
    -15.556  0.1633E+02  0.1135E+03
    -15.543  0.1626E+02  0.1137E+03
    -15.529  0.1622E+02  0.1140E+03
    -15.515  0.1621E+02  0.1142E+03
    -15.501  0.1623E+02  0.1144E+03
    -15.487  0.1629E+02  0.1146E+03
    -15.473  0.1638E+02  0.1149E+03
    -15.459  0.1649E+02  0.1151E+03
    -15.445  0.1663E+02  0.1153E+03
    -15.432  0.1679E+02  0.1156E+03
    -15.418  0.1697E+02  0.1158E+03
    -15.404  0.1715E+02  0.1160E+03
    -15.390  0.1733E+02  0.1163E+03
    -15.376  0.1751E+02  0.1165E+03
    -15.362  0.1768E+02  0.1168E+03
    -15.348  0.1783E+02  0.1170E+03
    -15.335  0.1796E+02  0.1173E+03
    -15.321  0.1806E+02  0.1175E+03
    -15.307  0.1813E+02  0.1178E+03
    -15.293  0.1818E+02  0.1180E+03
    -15.279  0.1819E+02  0.1183E+03
    -15.265  0.1817E+02  0.1185E+03
    -15.251  0.1813E+02  0.1188E+03
    -15.238  0.1807E+02  0.1190E+03
    -15.224  0.1799E+02  0.1193E+03
    -15.210  0.1790E+02  0.1195E+03
    -15.196  0.1780E+02  0.1198E+03
    -15.182  0.1770E+02  0.1200E+03
    -15.168  0.1761E+02  0.1203E+03
    -15.154  0.1753E+02  0.1205E+03
    -15.141  0.1747E+02  0.1207E+03
    -15.127  0.1743E+02  0.1210E+03
    -15.113  0.1741E+02  0.1212E+03
    -15.099  0.1742E+02  0.1215E+03
    -15.085  0.1746E+02  0.1217E+03
    -15.071  0.1753E+02  0.1219E+03
    -15.057  0.1762E+02  0.1222E+03
    -15.044  0.1774E+02  0.1224E+03
    -15.030  0.1787E+02  0.1227E+03
    -15.016  0.1803E+02  0.1229E+03
    -15.002  0.1819E+02  0.1232E+03
    -14.988  0.1836E+02  0.1234E+03
    -14.974  0.1852E+02  0.1237E+03
    -14.960  0.1869E+02  0.1240E+03
    -14.946  0.1884E+02  0.1242E+03
    -14.933  0.1898E+02  0.1245E+03
    -14.919  0.1910E+02  0.1247E+03
    -14.905  0.1920E+02  0.1250E+03
    -14.891  0.1927E+02  0.1253E+03
    -14.877  0.1933E+02  0.1255E+03
    -14.863  0.1936E+02  0.1258E+03
    -14.849  0.1936E+02  0.1261E+03
    -14.836  0.1934E+02  0.1264E+03
    -14.822  0.1929E+02  0.1266E+03
    -14.808  0.1922E+02  0.1269E+03
    -14.794  0.1913E+02  0.1272E+03
    -14.780  0.1903E+02  0.1274E+03
    -14.766  0.1890E+02  0.1277E+03
    -14.752  0.1876E+02  0.1279E+03
    -14.739  0.1861E+02  0.1282E+03
    -14.725  0.1844E+02  0.1285E+03
    -14.711  0.1827E+02  0.1287E+03
    -14.697  0.1809E+02  0.1290E+03
    -14.683  0.1791E+02  0.1292E+03
    -14.669  0.1773E+02  0.1294E+03
    -14.655  0.1754E+02  0.1297E+03
    -14.642  0.1737E+02  0.1299E+03
    -14.628  0.1720E+02  0.1302E+03
    -14.614  0.1704E+02  0.1304E+03
    -14.600  0.1690E+02  0.1306E+03
    -14.586  0.1677E+02  0.1309E+03
    -14.572  0.1666E+02  0.1311E+03
    -14.558  0.1657E+02  0.1313E+03
    -14.545  0.1651E+02  0.1316E+03
    -14.531  0.1647E+02  0.1318E+03
    -14.517  0.1645E+02  0.1320E+03
    -14.503  0.1645E+02  0.1322E+03
    -14.489  0.1648E+02  0.1325E+03
    -14.475  0.1652E+02  0.1327E+03
    -14.461  0.1658E+02  0.1329E+03
    -14.448  0.1666E+02  0.1332E+03
    -14.434  0.1674E+02  0.1334E+03
    -14.420  0.1683E+02  0.1336E+03
    -14.406  0.1693E+02  0.1339E+03
    -14.392  0.1703E+02  0.1341E+03
    -14.378  0.1714E+02  0.1343E+03
    -14.364  0.1724E+02  0.1346E+03
    -14.350  0.1734E+02  0.1348E+03
    -14.337  0.1744E+02  0.1351E+03
    -14.323  0.1753E+02  0.1353E+03
    -14.309  0.1763E+02  0.1355E+03
    -14.295  0.1773E+02  0.1358E+03
    -14.281  0.1783E+02  0.1360E+03
    -14.267  0.1794E+02  0.1363E+03
    -14.253  0.1805E+02  0.1365E+03
    -14.240  0.1816E+02  0.1368E+03
    -14.226  0.1829E+02  0.1370E+03
    -14.212  0.1842E+02  0.1373E+03
    -14.198  0.1856E+02  0.1376E+03
    -14.184  0.1871E+02  0.1378E+03
    -14.170  0.1886E+02  0.1381E+03
    -14.156  0.1902E+02  0.1383E+03
    -14.143  0.1917E+02  0.1386E+03
    -14.129  0.1932E+02  0.1389E+03
    -14.115  0.1947E+02  0.1391E+03
    -14.101  0.1960E+02  0.1394E+03
    -14.087  0.1972E+02  0.1397E+03
    -14.073  0.1982E+02  0.1400E+03
    -14.059  0.1991E+02  0.1402E+03
    -14.046  0.1997E+02  0.1405E+03
    -14.032  0.2000E+02  0.1408E+03
    -14.018  0.2002E+02  0.1411E+03
    -14.004  0.2001E+02  0.1413E+03
    -13.990  0.1998E+02  0.1416E+03
    -13.976  0.1993E+02  0.1419E+03
    -13.962  0.1987E+02  0.1422E+03
    -13.949  0.1979E+02  0.1425E+03
    -13.935  0.1970E+02  0.1427E+03
    -13.921  0.1961E+02  0.1430E+03
    -13.907  0.1951E+02  0.1433E+03
    -13.893  0.1941E+02  0.1435E+03
    -13.879  0.1931E+02  0.1438E+03
    -13.865  0.1921E+02  0.1441E+03
    -13.851  0.1912E+02  0.1443E+03
    -13.838  0.1904E+02  0.1446E+03
    -13.824  0.1896E+02  0.1449E+03
    -13.810  0.1889E+02  0.1451E+03
    -13.796  0.1882E+02  0.1454E+03
    -13.782  0.1876E+02  0.1456E+03
    -13.768  0.1870E+02  0.1459E+03
    -13.754  0.1865E+02  0.1462E+03
    -13.741  0.1860E+02  0.1464E+03
    -13.727  0.1856E+02  0.1467E+03
    -13.713  0.1852E+02  0.1469E+03
    -13.699  0.1849E+02  0.1472E+03
    -13.685  0.1846E+02  0.1474E+03
    -13.671  0.1843E+02  0.1477E+03
    -13.657  0.1841E+02  0.1480E+03
    -13.644  0.1838E+02  0.1482E+03
    -13.630  0.1836E+02  0.1485E+03
    -13.616  0.1834E+02  0.1487E+03
    -13.602  0.1832E+02  0.1490E+03
    -13.588  0.1830E+02  0.1492E+03
    -13.574  0.1827E+02  0.1495E+03
    -13.560  0.1824E+02  0.1497E+03
    -13.547  0.1820E+02  0.1500E+03
    -13.533  0.1815E+02  0.1502E+03
    -13.519  0.1810E+02  0.1505E+03
    -13.505  0.1803E+02  0.1507E+03
    -13.491  0.1795E+02  0.1510E+03
    -13.477  0.1786E+02  0.1512E+03
    -13.463  0.1777E+02  0.1515E+03
    -13.450  0.1767E+02  0.1517E+03
    -13.436  0.1757E+02  0.1520E+03
    -13.422  0.1748E+02  0.1522E+03
    -13.408  0.1739E+02  0.1525E+03
    -13.394  0.1732E+02  0.1527E+03
    -13.380  0.1727E+02  0.1529E+03
    -13.366  0.1725E+02  0.1532E+03
    -13.353  0.1725E+02  0.1534E+03
    -13.339  0.1729E+02  0.1537E+03
    -13.325  0.1737E+02  0.1539E+03
    -13.311  0.1748E+02  0.1541E+03
    -13.297  0.1764E+02  0.1544E+03
    -13.283  0.1785E+02  0.1546E+03
    -13.269  0.1809E+02  0.1549E+03
    -13.255  0.1837E+02  0.1551E+03
    -13.242  0.1868E+02  0.1554E+03
    -13.228  0.1902E+02  0.1557E+03
    -13.214  0.1939E+02  0.1559E+03
    -13.200  0.1976E+02  0.1562E+03
    -13.186  0.2015E+02  0.1565E+03
    -13.172  0.2053E+02  0.1568E+03
    -13.158  0.2090E+02  0.1571E+03
    -13.145  0.2126E+02  0.1573E+03
    -13.131  0.2160E+02  0.1576E+03
    -13.117  0.2191E+02  0.1579E+03
    -13.103  0.2218E+02  0.1583E+03
    -13.089  0.2243E+02  0.1586E+03
    -13.075  0.2263E+02  0.1589E+03
    -13.061  0.2280E+02  0.1592E+03
    -13.048  0.2294E+02  0.1595E+03