 190 190   0   0
  0.4643235E+02  0.2393774E-08  0.1842728E-08  0.2000000E-08  0.5000000E-15
  1.000000000000000E-004
  CAR 
 unknown system                          
      3.72656033    -24.10333886 2000     -3.38969445      1.00000000
    -24.103  0.0000E+00  0.0000E+00
    -24.089  0.0000E+00  0.0000E+00
    -24.075  0.0000E+00  0.0000E+00
    -24.062  0.0000E+00  0.0000E+00
    -24.048  0.0000E+00  0.0000E+00
    -24.034  0.0000E+00  0.0000E+00
    -24.020  0.0000E+00  0.0000E+00
    -24.006  0.0000E+00  0.0000E+00
    -23.992  0.0000E+00  0.0000E+00
    -23.978  0.0000E+00  0.0000E+00
    -23.964  0.0000E+00  0.0000E+00
    -23.950  0.0000E+00  0.0000E+00
    -23.936  0.0000E+00  0.0000E+00
    -23.922  0.0000E+00  0.0000E+00
    -23.908  0.0000E+00  0.0000E+00
    -23.895  0.0000E+00  0.0000E+00
    -23.881  0.0000E+00  0.0000E+00
    -23.867  0.0000E+00  0.0000E+00
    -23.853  0.0000E+00  0.0000E+00
    -23.839  0.0000E+00  0.0000E+00
    -23.825  0.0000E+00  0.0000E+00
    -23.811  0.0000E+00  0.0000E+00
    -23.797  0.0000E+00  0.0000E+00
    -23.783  0.0000E+00  0.0000E+00
    -23.769  0.0000E+00  0.0000E+00
    -23.755  0.0000E+00  0.0000E+00
    -23.741  0.0000E+00  0.0000E+00
    -23.727  0.0000E+00  0.0000E+00
    -23.714  0.0000E+00  0.0000E+00
    -23.700  0.0000E+00  0.0000E+00
    -23.686  0.0000E+00  0.0000E+00
    -23.672  0.0000E+00  0.0000E+00
    -23.658  0.0000E+00  0.0000E+00
    -23.644  0.0000E+00  0.0000E+00
    -23.630  0.0000E+00  0.0000E+00
    -23.616  0.0000E+00  0.0000E+00
    -23.602  0.0000E+00  0.0000E+00
    -23.588  0.0000E+00  0.0000E+00
    -23.574  0.0000E+00  0.0000E+00
    -23.560  0.0000E+00  0.0000E+00
    -23.546  0.0000E+00  0.0000E+00
    -23.533  0.0000E+00  0.0000E+00
    -23.519  0.0000E+00  0.0000E+00
    -23.505  0.0000E+00  0.0000E+00
    -23.491  0.0000E+00  0.0000E+00
    -23.477  0.0000E+00  0.0000E+00
    -23.463  0.0000E+00  0.0000E+00
    -23.449  0.0000E+00  0.0000E+00
    -23.435  0.0000E+00  0.0000E+00
    -23.421  0.0000E+00  0.0000E+00
    -23.407  0.0000E+00  0.0000E+00
    -23.393  0.0000E+00  0.0000E+00
    -23.379  0.0000E+00  0.0000E+00
    -23.365  0.0000E+00  0.0000E+00
    -23.352  0.0000E+00  0.0000E+00
    -23.338  0.0000E+00  0.0000E+00
    -23.324  0.0000E+00  0.0000E+00
    -23.310  0.0000E+00  0.0000E+00
    -23.296  0.0000E+00  0.0000E+00
    -23.282  0.2658E-14  0.3701E-16
    -23.268  0.6203E-14  0.1234E-15
    -23.254  0.1063E-13  0.2714E-15
    -23.240  0.2127E-13  0.5674E-15
    -23.226  0.4785E-13  0.1234E-14
    -23.212  0.1099E-12  0.2763E-14
    -23.198  0.2348E-12  0.6032E-14
    -23.184  0.5095E-12  0.1313E-13
    -23.171  0.1095E-11  0.2837E-13
    -23.157  0.2297E-11  0.6035E-13
    -23.143  0.4815E-11  0.1274E-12
    -23.129  0.9972E-11  0.2662E-12
    -23.115  0.2047E-10  0.5511E-12
    -23.101  0.4160E-10  0.1130E-11
    -23.087  0.8374E-10  0.2296E-11
    -23.073  0.1670E-09  0.4621E-11
    -23.059  0.3297E-09  0.9211E-11
    -23.045  0.6448E-09  0.1819E-10
    -23.031  0.1249E-08  0.3557E-10
    -23.017  0.2396E-08  0.6893E-10
    -23.004  0.4552E-08  0.1323E-09
    -22.990  0.8566E-08  0.2516E-09
    -22.976  0.1596E-07  0.4738E-09
    -22.962  0.2947E-07  0.8841E-09
    -22.948  0.5388E-07  0.1634E-08
    -22.934  0.9756E-07  0.2992E-08
    -22.920  0.1750E-06  0.5428E-08
    -22.906  0.3108E-06  0.9755E-08
    -22.892  0.5468E-06  0.1737E-07
    -22.878  0.9528E-06  0.3063E-07
    -22.864  0.1644E-05  0.5353E-07
    -22.850  0.2811E-05  0.9266E-07
    -22.836  0.4760E-05  0.1589E-06
    -22.823  0.7983E-05  0.2701E-06
    -22.809  0.1326E-04  0.4547E-06
    -22.795  0.2182E-04  0.7584E-06
    -22.781  0.3556E-04  0.1253E-05
    -22.767  0.5740E-04  0.2052E-05
    -22.753  0.9177E-04  0.3330E-05
    -22.739  0.1454E-03  0.5354E-05
    -22.725  0.2280E-03  0.8528E-05
    -22.711  0.3544E-03  0.1346E-04
    -22.697  0.5456E-03  0.2106E-04
    -22.683  0.8319E-03  0.3264E-04
    -22.669  0.1257E-02  0.5014E-04
    -22.655  0.1881E-02  0.7632E-04
    -22.642  0.2788E-02  0.1151E-03
    -22.628  0.4095E-02  0.1721E-03
    -22.614  0.5958E-02  0.2551E-03
    -22.600  0.8588E-02  0.3746E-03
    -22.586  0.1226E-01  0.5454E-03
    -22.572  0.1735E-01  0.7870E-03
    -22.558  0.2433E-01  0.1126E-02
    -22.544  0.3379E-01  0.1596E-02
    -22.530  0.4651E-01  0.2244E-02
    -22.516  0.6344E-01  0.3127E-02
    -22.502  0.8574E-01  0.4321E-02
    -22.488  0.1148E+00  0.5920E-02
    -22.474  0.1524E+00  0.8042E-02
    -22.461  0.2005E+00  0.1083E-01
    -22.447  0.2615E+00  0.1447E-01
    -22.433  0.3380E+00  0.1918E-01
    -22.419  0.4330E+00  0.2521E-01
    -22.405  0.5499E+00  0.3286E-01
    -22.391  0.6924E+00  0.4250E-01
    -22.377  0.8644E+00  0.5454E-01
    -22.363  0.1070E+01  0.6943E-01
    -22.349  0.1314E+01  0.8772E-01
    -22.335  0.1599E+01  0.1100E+00
    -22.321  0.1931E+01  0.1369E+00
    -22.307  0.2313E+01  0.1691E+00
    -22.293  0.2748E+01  0.2073E+00
    -22.280  0.3239E+01  0.2524E+00
    -22.266  0.3789E+01  0.3052E+00
    -22.252  0.4399E+01  0.3664E+00
    -22.238  0.5068E+01  0.4370E+00
    -22.224  0.5797E+01  0.5177E+00
    -22.210  0.6582E+01  0.6093E+00
    -22.196  0.7422E+01  0.7126E+00
    -22.182  0.8311E+01  0.8283E+00
    -22.168  0.9243E+01  0.9570E+00
    -22.154  0.1021E+02  0.1099E+01
    -22.140  0.1121E+02  0.1255E+01
    -22.126  0.1223E+02  0.1426E+01
    -22.113  0.1326E+02  0.1610E+01
    -22.099  0.1429E+02  0.1809E+01
    -22.085  0.1532E+02  0.2022E+01
    -22.071  0.1632E+02  0.2250E+01
    -22.057  0.1730E+02  0.2490E+01
    -22.043  0.1824E+02  0.2744E+01
    -22.029  0.1913E+02  0.3011E+01
    -22.015  0.1997E+02  0.3289E+01
    -22.001  0.2076E+02  0.3578E+01
    -21.987  0.2147E+02  0.3877E+01
    -21.973  0.2211E+02  0.4184E+01
    -21.959  0.2269E+02  0.4500E+01
    -21.945  0.2318E+02  0.4823E+01
    -21.932  0.2360E+02  0.5152E+01
    -21.918  0.2395E+02  0.5485E+01
    -21.904  0.2423E+02  0.5823E+01
    -21.890  0.2445E+02  0.6163E+01
    -21.876  0.2460E+02  0.6505E+01
    -21.862  0.2470E+02  0.6849E+01
    -21.848  0.2476E+02  0.7194E+01
    -21.834  0.2477E+02  0.7539E+01
    -21.820  0.2476E+02  0.7884E+01
    -21.806  0.2473E+02  0.8228E+01
    -21.792  0.2468E+02  0.8571E+01
    -21.778  0.2464E+02  0.8914E+01
    -21.764  0.2459E+02  0.9257E+01
    -21.751  0.2456E+02  0.9599E+01
    -21.737  0.2454E+02  0.9940E+01
    -21.723  0.2455E+02  0.1028E+02
    -21.709  0.2458E+02  0.1062E+02
    -21.695  0.2463E+02  0.1097E+02
    -21.681  0.2472E+02  0.1131E+02
    -21.667  0.2483E+02  0.1166E+02
    -21.653  0.2497E+02  0.1200E+02
    -21.639  0.2514E+02  0.1235E+02
    -21.625  0.2533E+02  0.1271E+02
    -21.611  0.2554E+02  0.1306E+02
    -21.597  0.2577E+02  0.1342E+02
    -21.583  0.2602E+02  0.1378E+02
    -21.570  0.2628E+02  0.1415E+02
    -21.556  0.2655E+02  0.1452E+02
    -21.542  0.2682E+02  0.1489E+02
    -21.528  0.2710E+02  0.1527E+02
    -21.514  0.2738E+02  0.1565E+02
    -21.500  0.2766E+02  0.1604E+02
    -21.486  0.2793E+02  0.1643E+02
    -21.472  0.2819E+02  0.1682E+02
    -21.458  0.2844E+02  0.1721E+02
    -21.444  0.2868E+02  0.1761E+02
    -21.430  0.2889E+02  0.1802E+02
    -21.416  0.2908E+02  0.1842E+02
    -21.402  0.2925E+02  0.1883E+02
    -21.389  0.2939E+02  0.1924E+02
    -21.375  0.2949E+02  0.1965E+02
    -21.361  0.2956E+02  0.2006E+02
    -21.347  0.2960E+02  0.2047E+02
    -21.333  0.2960E+02  0.2088E+02
    -21.319  0.2957E+02  0.2129E+02
    -21.305  0.2951E+02  0.2171E+02
    -21.291  0.2941E+02  0.2211E+02
    -21.277  0.2929E+02  0.2252E+02
    -21.263  0.2914E+02  0.2293E+02
    -21.249  0.2898E+02  0.2333E+02
    -21.235  0.2879E+02  0.2373E+02
    -21.222  0.2859E+02  0.2413E+02
    -21.208  0.2839E+02  0.2453E+02
    -21.194  0.2818E+02  0.2492E+02
    -21.180  0.2797E+02  0.2531E+02
    -21.166  0.2777E+02  0.2569E+02
    -21.152  0.2757E+02  0.2608E+02
    -21.138  0.2738E+02  0.2646E+02
    -21.124  0.2721E+02  0.2684E+02
    -21.110  0.2704E+02  0.2721E+02
    -21.096  0.2689E+02  0.2759E+02
    -21.082  0.2676E+02  0.2796E+02
    -21.068  0.2664E+02  0.2833E+02
    -21.054  0.2654E+02  0.2870E+02
    -21.041  0.2646E+02  0.2907E+02
    -21.027  0.2639E+02  0.2944E+02
    -21.013  0.2634E+02  0.2980E+02
    -20.999  0.2631E+02  0.3017E+02
    -20.985  0.2629E+02  0.3054E+02
    -20.971  0.2629E+02  0.3090E+02
    -20.957  0.2630E+02  0.3127E+02
    -20.943  0.2632E+02  0.3163E+02
    -20.929  0.2635E+02  0.3200E+02
    -20.915  0.2639E+02  0.3237E+02
    -20.901  0.2644E+02  0.3274E+02
    -20.887  0.2648E+02  0.3311E+02
    -20.873  0.2653E+02  0.3348E+02
    -20.860  0.2657E+02  0.3385E+02
    -20.846  0.2660E+02  0.3422E+02
    -20.832  0.2663E+02  0.3459E+02
    -20.818  0.2664E+02  0.3496E+02
    -20.804  0.2664E+02  0.3533E+02
    -20.790  0.2663E+02  0.3570E+02
    -20.776  0.2660E+02  0.3607E+02
    -20.762  0.2655E+02  0.3644E+02
    -20.748  0.2649E+02  0.3681E+02
    -20.734  0.2642E+02  0.3718E+02
    -20.720  0.2633E+02  0.3754E+02
    -20.706  0.2623E+02  0.3791E+02
    -20.692  0.2612E+02  0.3827E+02
    -20.679  0.2602E+02  0.3863E+02
    -20.665  0.2591E+02  0.3899E+02
    -20.651  0.2580E+02  0.3935E+02
    -20.637  0.2570E+02  0.3971E+02
    -20.623  0.2562E+02  0.4007E+02
    -20.609  0.2555E+02  0.4042E+02
    -20.595  0.2549E+02  0.4078E+02
    -20.581  0.2546E+02  0.4113E+02
    -20.567  0.2546E+02  0.4149E+02
    -20.553  0.2549E+02  0.4184E+02
    -20.539  0.2555E+02  0.4220E+02
    -20.525  0.2564E+02  0.4255E+02
    -20.511  0.2577E+02  0.4291E+02
    -20.498  0.2593E+02  0.4327E+02
    -20.484  0.2614E+02  0.4364E+02
    -20.470  0.2638E+02  0.4401E+02
    -20.456  0.2666E+02  0.4438E+02
    -20.442  0.2697E+02  0.4475E+02
    -20.428  0.2732E+02  0.4513E+02
    -20.414  0.2768E+02  0.4552E+02
    -20.400  0.2807E+02  0.4591E+02
    -20.386  0.2848E+02  0.4631E+02
    -20.372  0.2890E+02  0.4671E+02
    -20.358  0.2931E+02  0.4712E+02
    -20.344  0.2972E+02  0.4753E+02
    -20.331  0.3012E+02  0.4795E+02
    -20.317  0.3049E+02  0.4837E+02
    -20.303  0.3084E+02  0.4880E+02
    -20.289  0.3115E+02  0.4924E+02
    -20.275  0.3142E+02  0.4967E+02
    -20.261  0.3165E+02  0.5011E+02
    -20.247  0.3183E+02  0.5056E+02
    -20.233  0.3197E+02  0.5100E+02
    -20.219  0.3205E+02  0.5145E+02
    -20.205  0.3209E+02  0.5190E+02
    -20.191  0.3208E+02  0.5234E+02
    -20.177  0.3203E+02  0.5279E+02
    -20.163  0.3194E+02  0.5323E+02
    -20.150  0.3182E+02  0.5368E+02
    -20.136  0.3166E+02  0.5412E+02
    -20.122  0.3149E+02  0.5455E+02
    -20.108  0.3129E+02  0.5499E+02
    -20.094  0.3109E+02  0.5542E+02
    -20.080  0.3087E+02  0.5585E+02
    -20.066  0.3065E+02  0.5628E+02
    -20.052  0.3043E+02  0.5670E+02
    -20.038  0.3021E+02  0.5712E+02
    -20.024  0.3000E+02  0.5754E+02
    -20.010  0.2979E+02  0.5796E+02
    -19.996  0.2959E+02  0.5837E+02
    -19.982  0.2941E+02  0.5878E+02
    -19.969  0.2924E+02  0.5918E+02
    -19.955  0.2908E+02  0.5959E+02
    -19.941  0.2893E+02  0.5999E+02
    -19.927  0.2880E+02  0.6039E+02
    -19.913  0.2869E+02  0.6079E+02
    -19.899  0.2858E+02  0.6119E+02
    -19.885  0.2849E+02  0.6159E+02
    -19.871  0.2842E+02  0.6198E+02
    -19.857  0.2834E+02  0.6238E+02
    -19.843  0.2828E+02  0.6277E+02
    -19.829  0.2822E+02  0.6316E+02
    -19.815  0.2816E+02  0.6356E+02
    -19.801  0.2809E+02  0.6395E+02
    -19.788  0.2801E+02  0.6434E+02
    -19.774  0.2793E+02  0.6473E+02
    -19.760  0.2783E+02  0.6511E+02
    -19.746  0.2772E+02  0.6550E+02
    -19.732  0.2758E+02  0.6588E+02
    -19.718  0.2744E+02  0.6627E+02
    -19.704  0.2728E+02  0.6664E+02
    -19.690  0.2710E+02  0.6702E+02
    -19.676  0.2692E+02  0.6740E+02
    -19.662  0.2673E+02  0.6777E+02
    -19.648  0.2655E+02  0.6814E+02
    -19.634  0.2637E+02  0.6851E+02
    -19.620  0.2621E+02  0.6887E+02
    -19.607  0.2607E+02  0.6923E+02
    -19.593  0.2596E+02  0.6960E+02
    -19.579  0.2588E+02  0.6996E+02
    -19.565  0.2584E+02  0.7032E+02
    -19.551  0.2584E+02  0.7068E+02
    -19.537  0.2589E+02  0.7104E+02
    -19.523  0.2598E+02  0.7140E+02
    -19.509  0.2611E+02  0.7176E+02
    -19.495  0.2629E+02  0.7213E+02
    -19.481  0.2651E+02  0.7250E+02
    -19.467  0.2677E+02  0.7287E+02
    -19.453  0.2706E+02  0.7325E+02
    -19.439  0.2738E+02  0.7363E+02
    -19.426  0.2773E+02  0.7401E+02
    -19.412  0.2809E+02  0.7440E+02
    -19.398  0.2847E+02  0.7480E+02
    -19.384  0.2886E+02  0.7520E+02
    -19.370  0.2925E+02  0.7561E+02
    -19.356  0.2965E+02  0.7602E+02
    -19.342  0.3004E+02  0.7644E+02
    -19.328  0.3043E+02  0.7686E+02
    -19.314  0.3081E+02  0.7729E+02
    -19.300  0.3117E+02  0.7773E+02
    -19.286  0.3153E+02  0.7817E+02
    -19.272  0.3186E+02  0.7861E+02
    -19.259  0.3218E+02  0.7906E+02
    -19.245  0.3248E+02  0.7951E+02
    -19.231  0.3275E+02  0.7997E+02
    -19.217  0.3300E+02  0.8042E+02
    -19.203  0.3322E+02  0.8089E+02
    -19.189  0.3342E+02  0.8135E+02
    -19.175  0.3358E+02  0.8182E+02
    -19.161  0.3371E+02  0.8229E+02
    -19.147  0.3380E+02  0.8276E+02
    -19.133  0.3386E+02  0.8323E+02
    -19.119  0.3388E+02  0.8370E+02
    -19.105  0.3387E+02  0.8417E+02
    -19.091  0.3382E+02  0.8465E+02
    -19.078  0.3373E+02  0.8512E+02
    -19.064  0.3362E+02  0.8558E+02
    -19.050  0.3347E+02  0.8605E+02
    -19.036  0.3329E+02  0.8651E+02
    -19.022  0.3309E+02  0.8697E+02
    -19.008  0.3286E+02  0.8743E+02
    -18.994  0.3263E+02  0.8788E+02
    -18.980  0.3238E+02  0.8834E+02
    -18.966  0.3212E+02  0.8878E+02
    -18.952  0.3186E+02  0.8923E+02
    -18.938  0.3161E+02  0.8967E+02
    -18.924  0.3136E+02  0.9010E+02
    -18.910  0.3113E+02  0.9054E+02
    -18.897  0.3091E+02  0.9097E+02
    -18.883  0.3071E+02  0.9139E+02
    -18.869  0.3054E+02  0.9182E+02
    -18.855  0.3038E+02  0.9224E+02
    -18.841  0.3025E+02  0.9266E+02
    -18.827  0.3015E+02  0.9308E+02
    -18.813  0.3006E+02  0.9350E+02
    -18.799  0.3000E+02  0.9392E+02
    -18.785  0.2996E+02  0.9434E+02
    -18.771  0.2994E+02  0.9475E+02
    -18.757  0.2993E+02  0.9517E+02
    -18.743  0.2994E+02  0.9559E+02
    -18.729  0.2996E+02  0.9600E+02
    -18.716  0.2999E+02  0.9642E+02
    -18.702  0.3003E+02  0.9684E+02
    -18.688  0.3008E+02  0.9726E+02
    -18.674  0.3013E+02  0.9768E+02
    -18.660  0.3018E+02  0.9810E+02
    -18.646  0.3024E+02  0.9852E+02
    -18.632  0.3030E+02  0.9894E+02
    -18.618  0.3036E+02  0.9936E+02
    -18.604  0.3042E+02  0.9979E+02
    -18.590  0.3049E+02  0.1002E+03
    -18.576  0.3055E+02  0.1006E+03
    -18.562  0.3061E+02  0.1011E+03
    -18.548  0.3066E+02  0.1015E+03
    -18.535  0.3071E+02  0.1019E+03
    -18.521  0.3076E+02  0.1023E+03
    -18.507  0.3079E+02  0.1028E+03
    -18.493  0.3081E+02  0.1032E+03
    -18.479  0.3082E+02  0.1036E+03
    -18.465  0.3082E+02  0.1041E+03
    -18.451  0.3079E+02  0.1045E+03
    -18.437  0.3075E+02  0.1049E+03
    -18.423  0.3069E+02  0.1053E+03
    -18.409  0.3062E+02  0.1058E+03
    -18.395  0.3052E+02  0.1062E+03
    -18.381  0.3041E+02  0.1066E+03
    -18.368  0.3029E+02  0.1070E+03
    -18.354  0.3015E+02  0.1075E+03
    -18.340  0.3001E+02  0.1079E+03
    -18.326  0.2985E+02  0.1083E+03
    -18.312  0.2970E+02  0.1087E+03
    -18.298  0.2954E+02  0.1091E+03
    -18.284  0.2938E+02  0.1095E+03
    -18.270  0.2923E+02  0.1099E+03
    -18.256  0.2908E+02  0.1103E+03
    -18.242  0.2894E+02  0.1107E+03
    -18.228  0.2881E+02  0.1111E+03
    -18.214  0.2869E+02  0.1115E+03
    -18.200  0.2858E+02  0.1119E+03
    -18.187  0.2849E+02  0.1123E+03
    -18.173  0.2840E+02  0.1127E+03
    -18.159  0.2833E+02  0.1131E+03
    -18.145  0.2826E+02  0.1135E+03
    -18.131  0.2821E+02  0.1139E+03
    -18.117  0.2817E+02  0.1143E+03
    -18.103  0.2814E+02  0.1147E+03
    -18.089  0.2813E+02  0.1151E+03
    -18.075  0.2812E+02  0.1155E+03
    -18.061  0.2813E+02  0.1159E+03
    -18.047  0.2814E+02  0.1163E+03
    -18.033  0.2817E+02  0.1167E+03
    -18.019  0.2822E+02  0.1170E+03
    -18.006  0.2828E+02  0.1174E+03
    -17.992  0.2834E+02  0.1178E+03
    -17.978  0.2843E+02  0.1182E+03
    -17.964  0.2852E+02  0.1186E+03
    -17.950  0.2863E+02  0.1190E+03
    -17.936  0.2875E+02  0.1194E+03
    -17.922  0.2887E+02  0.1198E+03
    -17.908  0.2901E+02  0.1202E+03
    -17.894  0.2915E+02  0.1206E+03
    -17.880  0.2931E+02  0.1210E+03
    -17.866  0.2947E+02  0.1215E+03
    -17.852  0.2963E+02  0.1219E+03
    -17.838  0.2981E+02  0.1223E+03
    -17.825  0.2999E+02  0.1227E+03
    -17.811  0.3018E+02  0.1231E+03
    -17.797  0.3038E+02  0.1235E+03
    -17.783  0.3059E+02  0.1240E+03
    -17.769  0.3081E+02  0.1244E+03
    -17.755  0.3104E+02  0.1248E+03
    -17.741  0.3128E+02  0.1253E+03
    -17.727  0.3153E+02  0.1257E+03
    -17.713  0.3179E+02  0.1262E+03
    -17.699  0.3206E+02  0.1266E+03
    -17.685  0.3234E+02  0.1270E+03
    -17.671  0.3263E+02  0.1275E+03
    -17.657  0.3292E+02  0.1280E+03
    -17.644  0.3320E+02  0.1284E+03
    -17.630  0.3349E+02  0.1289E+03
    -17.616  0.3377E+02  0.1294E+03
    -17.602  0.3403E+02  0.1298E+03
    -17.588  0.3428E+02  0.1303E+03
    -17.574  0.3451E+02  0.1308E+03
    -17.560  0.3471E+02  0.1313E+03
    -17.546  0.3489E+02  0.1318E+03
    -17.532  0.3502E+02  0.1322E+03
    -17.518  0.3512E+02  0.1327E+03
    -17.504  0.3518E+02  0.1332E+03
    -17.490  0.3520E+02  0.1337E+03
    -17.477  0.3518E+02  0.1342E+03
    -17.463  0.3511E+02  0.1347E+03
    -17.449  0.3501E+02  0.1352E+03
    -17.435  0.3486E+02  0.1357E+03
    -17.421  0.3468E+02  0.1362E+03
    -17.407  0.3447E+02  0.1366E+03
    -17.393  0.3422E+02  0.1371E+03
    -17.379  0.3395E+02  0.1376E+03
    -17.365  0.3366E+02  0.1380E+03
    -17.351  0.3336E+02  0.1385E+03
    -17.337  0.3304E+02  0.1390E+03
    -17.323  0.3271E+02  0.1394E+03
    -17.309  0.3237E+02  0.1399E+03
    -17.296  0.3203E+02  0.1403E+03
    -17.282  0.3168E+02  0.1408E+03
    -17.268  0.3134E+02  0.1412E+03
    -17.254  0.3099E+02  0.1416E+03
    -17.240  0.3064E+02  0.1421E+03
    -17.226  0.3029E+02  0.1425E+03
    -17.212  0.2993E+02  0.1429E+03
    -17.198  0.2958E+02  0.1433E+03
    -17.184  0.2923E+02  0.1437E+03
    -17.170  0.2887E+02  0.1441E+03
    -17.156  0.2852E+02  0.1445E+03
    -17.142  0.2817E+02  0.1449E+03
    -17.128  0.2783E+02  0.1453E+03
    -17.115  0.2750E+02  0.1457E+03
    -17.101  0.2718E+02  0.1461E+03
    -17.087  0.2688E+02  0.1464E+03
    -17.073  0.2661E+02  0.1468E+03
    -17.059  0.2637E+02  0.1472E+03
    -17.045  0.2617E+02  0.1475E+03
    -17.031  0.2601E+02  0.1479E+03
    -17.017  0.2590E+02  0.1483E+03
    -17.003  0.2583E+02  0.1486E+03
    -16.989  0.2582E+02  0.1490E+03
    -16.975  0.2586E+02  0.1493E+03
    -16.961  0.2595E+02  0.1497E+03
    -16.947  0.2609E+02  0.1501E+03
    -16.934  0.2627E+02  0.1504E+03
    -16.920  0.2650E+02  0.1508E+03
    -16.906  0.2676E+02  0.1512E+03
    -16.892  0.2706E+02  0.1515E+03
    -16.878  0.2737E+02  0.1519E+03
    -16.864  0.2770E+02  0.1523E+03
    -16.850  0.2803E+02  0.1527E+03
    -16.836  0.2836E+02  0.1531E+03
    -16.822  0.2867E+02  0.1535E+03
    -16.808  0.2898E+02  0.1539E+03
    -16.794  0.2926E+02  0.1543E+03
    -16.780  0.2951E+02  0.1547E+03
    -16.766  0.2974E+02  0.1551E+03
    -16.753  0.2993E+02  0.1555E+03
    -16.739  0.3010E+02  0.1560E+03
    -16.725  0.3023E+02  0.1564E+03
    -16.711  0.3035E+02  0.1568E+03
    -16.697  0.3044E+02  0.1572E+03
    -16.683  0.3051E+02  0.1577E+03
    -16.669  0.3057E+02  0.1581E+03
    -16.655  0.3062E+02  0.1585E+03
    -16.641  0.3067E+02  0.1589E+03
    -16.627  0.3072E+02  0.1594E+03
    -16.613  0.3078E+02  0.1598E+03
    -16.599  0.3085E+02  0.1602E+03
    -16.586  0.3093E+02  0.1607E+03
    -16.572  0.3103E+02  0.1611E+03
    -16.558  0.3114E+02  0.1615E+03
    -16.544  0.3126E+02  0.1620E+03
    -16.530  0.3140E+02  0.1624E+03
    -16.516  0.3156E+02  0.1628E+03
    -16.502  0.3172E+02  0.1633E+03
    -16.488  0.3189E+02  0.1637E+03
    -16.474  0.3206E+02  0.1642E+03
    -16.460  0.3224E+02  0.1646E+03
    -16.446  0.3241E+02  0.1651E+03
    -16.432  0.3258E+02  0.1655E+03
    -16.418  0.3273E+02  0.1660E+03
    -16.405  0.3287E+02  0.1664E+03
    -16.391  0.3300E+02  0.1669E+03
    -16.377  0.3311E+02  0.1673E+03
    -16.363  0.3319E+02  0.1678E+03
    -16.349  0.3326E+02  0.1683E+03
    -16.335  0.3330E+02  0.1687E+03
    -16.321  0.3333E+02  0.1692E+03
    -16.307  0.3333E+02  0.1697E+03
    -16.293  0.3331E+02  0.1701E+03
    -16.279  0.3327E+02  0.1706E+03
    -16.265  0.3322E+02  0.1711E+03
    -16.251  0.3315E+02  0.1715E+03
    -16.237  0.3307E+02  0.1720E+03
    -16.224  0.3298E+02  0.1724E+03
    -16.210  0.3289E+02  0.1729E+03
    -16.196  0.3280E+02  0.1734E+03
    -16.182  0.3271E+02  0.1738E+03
    -16.168  0.3262E+02  0.1743E+03
    -16.154  0.3254E+02  0.1747E+03
    -16.140  0.3246E+02  0.1752E+03
    -16.126  0.3239E+02  0.1756E+03
    -16.112  0.3232E+02  0.1761E+03
    -16.098  0.3226E+02  0.1765E+03
    -16.084  0.3220E+02  0.1770E+03
    -16.070  0.3215E+02  0.1774E+03
    -16.056  0.3210E+02  0.1779E+03
    -16.043  0.3205E+02  0.1783E+03
    -16.029  0.3200E+02  0.1787E+03
    -16.015  0.3195E+02  0.1792E+03
    -16.001  0.3188E+02  0.1796E+03
    -15.987  0.3181E+02  0.1801E+03
    -15.973  0.3174E+02  0.1805E+03
    -15.959  0.3165E+02  0.1810E+03
    -15.945  0.3156E+02  0.1814E+03
    -15.931  0.3146E+02  0.1818E+03
    -15.917  0.3136E+02  0.1823E+03
    -15.903  0.3125E+02  0.1827E+03
    -15.889  0.3114E+02  0.1831E+03
    -15.875  0.3104E+02  0.1836E+03
    -15.862  0.3093E+02  0.1840E+03
    -15.848  0.3084E+02  0.1844E+03
    -15.834  0.3075E+02  0.1849E+03
    -15.820  0.3067E+02  0.1853E+03
    -15.806  0.3061E+02  0.1857E+03
    -15.792  0.3057E+02  0.1861E+03
    -15.778  0.3054E+02  0.1866E+03
    -15.764  0.3053E+02  0.1870E+03
    -15.750  0.3053E+02  0.1874E+03
    -15.736  0.3055E+02  0.1878E+03
    -15.722  0.3058E+02  0.1883E+03
    -15.708  0.3063E+02  0.1887E+03
    -15.695  0.3069E+02  0.1891E+03
    -15.681  0.3076E+02  0.1896E+03
    -15.667  0.3083E+02  0.1900E+03
    -15.653  0.3091E+02  0.1904E+03
    -15.639  0.3099E+02  0.1908E+03
    -15.625  0.3106E+02  0.1913E+03
    -15.611  0.3113E+02  0.1917E+03
    -15.597  0.3119E+02  0.1921E+03
    -15.583  0.3124E+02  0.1926E+03
    -15.569  0.3127E+02  0.1930E+03
    -15.555  0.3128E+02  0.1934E+03
    -15.541  0.3128E+02  0.1939E+03
    -15.527  0.3126E+02  0.1943E+03
    -15.514  0.3122E+02  0.1948E+03
    -15.500  0.3116E+02  0.1952E+03
    -15.486  0.3107E+02  0.1956E+03
    -15.472  0.3098E+02  0.1961E+03
    -15.458  0.3086E+02  0.1965E+03
    -15.444  0.3073E+02  0.1969E+03
    -15.430  0.3060E+02  0.1973E+03
    -15.416  0.3046E+02  0.1978E+03
    -15.402  0.3032E+02  0.1982E+03
    -15.388  0.3018E+02  0.1986E+03
    -15.374  0.3005E+02  0.1990E+03
    -15.360  0.2993E+02  0.1994E+03
    -15.346  0.2983E+02  0.1999E+03
    -15.333  0.2974E+02  0.2003E+03
    -15.319  0.2968E+02  0.2007E+03
    -15.305  0.2964E+02  0.2011E+03
    -15.291  0.2962E+02  0.2015E+03
    -15.277  0.2962E+02  0.2019E+03
    -15.263  0.2965E+02  0.2023E+03
    -15.249  0.2969E+02  0.2027E+03
    -15.235  0.2975E+02  0.2032E+03
    -15.221  0.2982E+02  0.2036E+03
    -15.207  0.2989E+02  0.2040E+03
    -15.193  0.2997E+02  0.2044E+03
    -15.179  0.3004E+02  0.2048E+03
    -15.165  0.3010E+02  0.2052E+03
    -15.152  0.3015E+02  0.2057E+03
    -15.138  0.3018E+02  0.2061E+03
    -15.124  0.3019E+02  0.2065E+03
    -15.110  0.3018E+02  0.2069E+03
    -15.096  0.3014E+02  0.2073E+03
    -15.082  0.3008E+02  0.2078E+03
    -15.068  0.3000E+02  0.2082E+03
    -15.054  0.2990E+02  0.2086E+03
    -15.040  0.2978E+02  0.2090E+03
    -15.026  0.2965E+02  0.2094E+03
    -15.012  0.2951E+02  0.2098E+03
    -14.998  0.2937E+02  0.2102E+03
    -14.984  0.2923E+02  0.2107E+03
    -14.971  0.2910E+02  0.2111E+03
    -14.957  0.2898E+02  0.2115E+03
    -14.943  0.2887E+02  0.2119E+03
    -14.929  0.2879E+02  0.2123E+03
    -14.915  0.2872E+02  0.2127E+03
    -14.901  0.2868E+02  0.2131E+03
    -14.887  0.2866E+02  0.2135E+03
    -14.873  0.2866E+02  0.2139E+03
    -14.859  0.2869E+02  0.2143E+03
    -14.845  0.2873E+02  0.2147E+03
    -14.831  0.2878E+02  0.2151E+03
    -14.817  0.2885E+02  0.2155E+03
    -14.804  0.2893E+02  0.2159E+03
    -14.790  0.2901E+02  0.2163E+03
    -14.776  0.2909E+02  0.2167E+03
    -14.762  0.2917E+02  0.2171E+03
    -14.748  0.2924E+02  0.2175E+03
    -14.734  0.2930E+02  0.2179E+03
    -14.720  0.2934E+02  0.2183E+03
    -14.706  0.2938E+02  0.2187E+03
    -14.692  0.2939E+02  0.2191E+03
    -14.678  0.2939E+02  0.2195E+03
    -14.664  0.2937E+02  0.2199E+03
    -14.650  0.2933E+02  0.2203E+03
    -14.636  0.2928E+02  0.2208E+03
    -14.623  0.2922E+02  0.2212E+03
    -14.609  0.2915E+02  0.2216E+03
    -14.595  0.2908E+02  0.2220E+03
    -14.581  0.2901E+02  0.2224E+03
    -14.567  0.2893E+02  0.2228E+03
    -14.553  0.2886E+02  0.2232E+03
    -14.539  0.2881E+02  0.2236E+03
    -14.525  0.2876E+02  0.2240E+03
    -14.511  0.2874E+02  0.2244E+03
    -14.497  0.2873E+02  0.2248E+03
    -14.483  0.2875E+02  0.2252E+03
    -14.469  0.2879E+02  0.2256E+03
    -14.455  0.2885E+02  0.2260E+03
    -14.442  0.2894E+02  0.2264E+03
    -14.428  0.2906E+02  0.2268E+03
    -14.414  0.2920E+02  0.2272E+03
    -14.400  0.2936E+02  0.2276E+03
    -14.386  0.2955E+02  0.2280E+03
    -14.372  0.2975E+02  0.2284E+03
    -14.358  0.2996E+02  0.2288E+03
    -14.344  0.3018E+02  0.2293E+03
    -14.330  0.3041E+02  0.2297E+03
    -14.316  0.3063E+02  0.2301E+03
    -14.302  0.3086E+02  0.2305E+03
    -14.288  0.3107E+02  0.2310E+03
    -14.274  0.3128E+02  0.2314E+03
    -14.261  0.3147E+02  0.2319E+03
    -14.247  0.3164E+02  0.2323E+03
    -14.233  0.3179E+02  0.2327E+03
    -14.219  0.3193E+02  0.2332E+03
    -14.205  0.3204E+02  0.2336E+03
    -14.191  0.3213E+02  0.2341E+03
    -14.177  0.3219E+02  0.2345E+03
    -14.163  0.3224E+02  0.2350E+03
    -14.149  0.3227E+02  0.2354E+03
    -14.135  0.3229E+02  0.2359E+03
    -14.121  0.3229E+02  0.2363E+03
    -14.107  0.3228E+02  0.2368E+03
    -14.093  0.3226E+02  0.2372E+03
    -14.080  0.3224E+02  0.2377E+03
    -14.066  0.3222E+02  0.2381E+03
    -14.052  0.3220E+02  0.2386E+03
    -14.038  0.3219E+02  0.2390E+03
    -14.024  0.3219E+02  0.2395E+03
    -14.010  0.3219E+02  0.2399E+03
    -13.996  0.3221E+02  0.2404E+03
    -13.982  0.3225E+02  0.2408E+03
    -13.968  0.3230E+02  0.2413E+03
    -13.954  0.3238E+02  0.2417E+03
    -13.940  0.3247E+02  0.2422E+03
    -13.926  0.3259E+02  0.2426E+03
    -13.913  0.3273E+02  0.2431E+03
    -13.899  0.3290E+02  0.2435E+03
    -13.885  0.3308E+02  0.2440E+03
    -13.871  0.3329E+02  0.2445E+03
    -13.857  0.3351E+02  0.2449E+03
    -13.843  0.3375E+02  0.2454E+03
    -13.829  0.3399E+02  0.2459E+03
    -13.815  0.3424E+02  0.2463E+03
    -13.801  0.3449E+02  0.2468E+03
    -13.787  0.3474E+02  0.2473E+03
    -13.773  0.3496E+02  0.2478E+03
    -13.759  0.3517E+02  0.2483E+03
    -13.745  0.3535E+02  0.2488E+03
    -13.732  0.3550E+02  0.2493E+03
    -13.718  0.3561E+02  0.2498E+03
    -13.704  0.3568E+02  0.2503E+03
    -13.690  0.3571E+02  0.2508E+03
    -13.676  0.3568E+02  0.2513E+03
    -13.662  0.3562E+02  0.2517E+03
    -13.648  0.3550E+02  0.2522E+03
    -13.634  0.3535E+02  0.2527E+03
    -13.620  0.3517E+02  0.2532E+03
    -13.606  0.3496E+02  0.2537E+03
    -13.592  0.3472E+02  0.2542E+03
    -13.578  0.3448E+02  0.2547E+03
    -13.564  0.3424E+02  0.2552E+03
    -13.551  0.3400E+02  0.2556E+03
    -13.537  0.3378E+02  0.2561E+03
    -13.523  0.3357E+02  0.2566E+03
    -13.509  0.3340E+02  0.2570E+03
    -13.495  0.3327E+02  0.2575E+03
    -13.481  0.3317E+02  0.2580E+03
    -13.467  0.3311E+02  0.2584E+03
    -13.453  0.3310E+02  0.2589E+03
    -13.439  0.3313E+02  0.2593E+03
    -13.425  0.3319E+02  0.2598E+03
    -13.411  0.3330E+02  0.2603E+03
    -13.397  0.3344E+02  0.2607E+03
    -13.383  0.3360E+02  0.2612E+03
    -13.370  0.3379E+02  0.2617E+03
    -13.356  0.3400E+02  0.2621E+03
    -13.342  0.3423E+02  0.2626E+03
    -13.328  0.3446E+02  0.2631E+03
    -13.314  0.3470E+02  0.2636E+03
    -13.300  0.3494E+02  0.2641E+03
    -13.286  0.3517E+02  0.2646E+03
    -13.272  0.3540E+02  0.2650E+03
    -13.258  0.3561E+02  0.2655E+03
    -13.244  0.3581E+02  0.2660E+03
    -13.230  0.3599E+02  0.2665E+03
    -13.216  0.3615E+02  0.2670E+03
    -13.202  0.3629E+02  0.2675E+03
    -13.189  0.3640E+02  0.2681E+03
    -13.175  0.3648E+02  0.2686E+03
    -13.161  0.3653E+02  0.2691E+03
    -13.147  0.3655E+02  0.2696E+03
    -13.133  0.3654E+02  0.2701E+03
    -13.119  0.3651E+02  0.2706E+03
    -13.105  0.3644E+02  0.2711E+03
    -13.091  0.3634E+02  0.2716E+03
    -13.077  0.3622E+02  0.2721E+03
    -13.063  0.3607E+02  0.2726E+03
    -13.049  0.3591E+02  0.2731E+03
    -13.035  0.3574E+02  0.2736E+03
    -13.021  0.3556E+02  0.2741E+03
    -13.008  0.3539E+02  0.2746E+03
    -12.994  0.3522E+02  0.2751E+03
    -12.980  0.3506E+02  0.2756E+03
    -12.966  0.3493E+02  0.2761E+03
    -12.952  0.3481E+02  0.2766E+03
    -12.938  0.3473E+02  0.2770E+03
    -12.924  0.3467E+02  0.2775E+03
    -12.910  0.3465E+02  0.2780E+03
    -12.896  0.3466E+02  0.2785E+03
    -12.882  0.3470E+02  0.2790E+03
    -12.868  0.3477E+02  0.2795E+03
    -12.854  0.3487E+02  0.2799E+03
    -12.841  0.3499E+02  0.2804E+03
    -12.827  0.3513E+02  0.2809E+03
    -12.813  0.3528E+02  0.2814E+03
    -12.799  0.3544E+02  0.2819E+03
    -12.785  0.3561E+02  0.2824E+03
    -12.771  0.3577E+02  0.2829E+03
    -12.757  0.3593E+02  0.2834E+03
    -12.743  0.3608E+02  0.2839E+03
    -12.729  0.3622E+02  0.2844E+03
    -12.715  0.3635E+02  0.2849E+03
    -12.701  0.3647E+02  0.2854E+03
    -12.687  0.3658E+02  0.2859E+03
    -12.673  0.3667E+02  0.2864E+03
    -12.660  0.3675E+02  0.2869E+03
    -12.646  0.3681E+02  0.2875E+03
    -12.632  0.3686E+02  0.2880E+03
    -12.618  0.3690E+02  0.2885E+03