 152 152   0   0
  0.5188112E+02  0.2419460E-08  0.1629688E-08  0.2000000E-08  0.5000000E-15
  1.000000000000000E-004
  CAR 
 unknown system                          
      3.08289726    -24.33778643 2000     -3.80272373      1.00000000
    -24.338  0.0000E+00  0.0000E+00
    -24.324  0.0000E+00  0.0000E+00
    -24.310  0.0000E+00  0.0000E+00
    -24.297  0.0000E+00  0.0000E+00
    -24.283  0.0000E+00  0.0000E+00
    -24.269  0.0000E+00  0.0000E+00
    -24.255  0.0000E+00  0.0000E+00
    -24.242  0.0000E+00  0.0000E+00
    -24.228  0.0000E+00  0.0000E+00
    -24.214  0.0000E+00  0.0000E+00
    -24.201  0.0000E+00  0.0000E+00
    -24.187  0.0000E+00  0.0000E+00
    -24.173  0.0000E+00  0.0000E+00
    -24.159  0.0000E+00  0.0000E+00
    -24.146  0.0000E+00  0.0000E+00
    -24.132  0.0000E+00  0.0000E+00
    -24.118  0.0000E+00  0.0000E+00
    -24.105  0.0000E+00  0.0000E+00
    -24.091  0.0000E+00  0.0000E+00
    -24.077  0.0000E+00  0.0000E+00
    -24.063  0.0000E+00  0.0000E+00
    -24.050  0.0000E+00  0.0000E+00
    -24.036  0.0000E+00  0.0000E+00
    -24.022  0.0000E+00  0.0000E+00
    -24.009  0.0000E+00  0.0000E+00
    -23.995  0.0000E+00  0.0000E+00
    -23.981  0.0000E+00  0.0000E+00
    -23.967  0.0000E+00  0.0000E+00
    -23.954  0.0000E+00  0.0000E+00
    -23.940  0.0000E+00  0.0000E+00
    -23.926  0.0000E+00  0.0000E+00
    -23.913  0.0000E+00  0.0000E+00
    -23.899  0.0000E+00  0.0000E+00
    -23.885  0.0000E+00  0.0000E+00
    -23.871  0.0000E+00  0.0000E+00
    -23.858  0.0000E+00  0.0000E+00
    -23.844  0.0000E+00  0.0000E+00
    -23.830  0.0000E+00  0.0000E+00
    -23.817  0.0000E+00  0.0000E+00
    -23.803  0.0000E+00  0.0000E+00
    -23.789  0.0000E+00  0.0000E+00
    -23.775  0.0000E+00  0.0000E+00
    -23.762  0.0000E+00  0.0000E+00
    -23.748  0.0000E+00  0.0000E+00
    -23.734  0.0000E+00  0.0000E+00
    -23.721  0.0000E+00  0.0000E+00
    -23.707  0.0000E+00  0.0000E+00
    -23.693  0.0000E+00  0.0000E+00
    -23.679  0.0000E+00  0.0000E+00
    -23.666  0.0000E+00  0.0000E+00
    -23.652  0.0000E+00  0.0000E+00
    -23.638  0.0000E+00  0.0000E+00
    -23.624  0.0000E+00  0.0000E+00
    -23.611  0.0000E+00  0.0000E+00
    -23.597  0.0000E+00  0.0000E+00
    -23.583  0.0000E+00  0.0000E+00
    -23.570  0.0000E+00  0.0000E+00
    -23.556  0.0000E+00  0.0000E+00
    -23.542  0.0000E+00  0.0000E+00
    -23.528  0.0000E+00  0.0000E+00
    -23.515  0.2698E-14  0.3701E-16
    -23.501  0.8094E-14  0.1480E-15
    -23.487  0.1079E-13  0.2961E-15
    -23.474  0.2788E-13  0.6785E-15
    -23.460  0.5935E-13  0.1493E-14
    -23.446  0.1241E-12  0.3195E-14
    -23.432  0.2806E-12  0.7044E-14
    -23.419  0.5881E-12  0.1511E-13
    -23.405  0.1237E-11  0.3209E-13
    -23.391  0.2584E-11  0.6753E-13
    -23.378  0.5343E-11  0.1408E-12
    -23.364  0.1095E-10  0.2910E-12
    -23.350  0.2222E-10  0.5958E-12
    -23.336  0.4468E-10  0.1209E-11
    -23.323  0.8901E-10  0.2430E-11
    -23.309  0.1757E-09  0.4839E-11
    -23.295  0.3435E-09  0.9550E-11
    -23.282  0.6653E-09  0.1868E-10
    -23.268  0.1277E-08  0.3619E-10
    -23.254  0.2427E-08  0.6948E-10
    -23.240  0.4571E-08  0.1322E-09
    -23.227  0.8530E-08  0.2492E-09
    -23.213  0.1577E-07  0.4655E-09
    -23.199  0.2888E-07  0.8617E-09
    -23.186  0.5241E-07  0.1581E-08
    -23.172  0.9421E-07  0.2873E-08
    -23.158  0.1678E-06  0.5175E-08
    -23.144  0.2961E-06  0.9236E-08
    -23.131  0.5176E-06  0.1634E-07
    -23.117  0.8965E-06  0.2863E-07
    -23.103  0.1538E-05  0.4974E-07
    -23.090  0.2616E-05  0.8561E-07
    -23.076  0.4406E-05  0.1460E-06
    -23.062  0.7353E-05  0.2469E-06
    -23.048  0.1216E-04  0.4137E-06
    -23.035  0.1992E-04  0.6869E-06
    -23.021  0.3233E-04  0.1130E-05
    -23.007  0.5199E-04  0.1843E-05
    -22.994  0.8284E-04  0.2980E-05
    -22.980  0.1308E-03  0.4774E-05
    -22.966  0.2046E-03  0.7580E-05
    -22.952  0.3171E-03  0.1193E-04
    -22.939  0.4870E-03  0.1861E-04
    -22.925  0.7411E-03  0.2878E-04
    -22.911  0.1117E-02  0.4410E-04
    -22.897  0.1669E-02  0.6700E-04
    -22.884  0.2471E-02  0.1009E-03
    -22.870  0.3625E-02  0.1506E-03
    -22.856  0.5270E-02  0.2229E-03
    -22.843  0.7591E-02  0.3270E-03
    -22.829  0.1083E-01  0.4757E-03
    -22.815  0.1533E-01  0.6859E-03
    -22.801  0.2148E-01  0.9806E-03
    -22.788  0.2984E-01  0.1390E-02
    -22.774  0.4108E-01  0.1953E-02
    -22.760  0.5604E-01  0.2722E-02
    -22.747  0.7576E-01  0.3761E-02
    -22.733  0.1015E+00  0.5154E-02
    -22.719  0.1348E+00  0.7003E-02
    -22.705  0.1775E+00  0.9438E-02
    -22.692  0.2315E+00  0.1261E-01
    -22.678  0.2994E+00  0.1672E-01
    -22.664  0.3837E+00  0.2198E-01
    -22.651  0.4875E+00  0.2867E-01
    -22.637  0.6141E+00  0.3709E-01
    -22.623  0.7667E+00  0.4761E-01
    -22.609  0.9490E+00  0.6063E-01
    -22.596  0.1165E+01  0.7660E-01
    -22.582  0.1417E+01  0.9604E-01
    -22.568  0.1709E+01  0.1195E+00
    -22.555  0.2045E+01  0.1475E+00
    -22.541  0.2425E+01  0.1808E+00
    -22.527  0.2853E+01  0.2199E+00
    -22.513  0.3329E+01  0.2656E+00
    -22.500  0.3853E+01  0.3185E+00
    -22.486  0.4423E+01  0.3791E+00
    -22.472  0.5037E+01  0.4482E+00
    -22.459  0.5691E+01  0.5263E+00
    -22.445  0.6381E+01  0.6138E+00
    -22.431  0.7100E+01  0.7112E+00
    -22.417  0.7841E+01  0.8187E+00
    -22.404  0.8597E+01  0.9367E+00
    -22.390  0.9358E+01  0.1065E+01
    -22.376  0.1012E+02  0.1204E+01
    -22.363  0.1086E+02  0.1353E+01
    -22.349  0.1158E+02  0.1512E+01
    -22.335  0.1228E+02  0.1680E+01
    -22.321  0.1293E+02  0.1857E+01
    -22.308  0.1354E+02  0.2043E+01
    -22.294  0.1410E+02  0.2237E+01
    -22.280  0.1460E+02  0.2437E+01
    -22.266  0.1505E+02  0.2643E+01
    -22.253  0.1543E+02  0.2855E+01
    -22.239  0.1576E+02  0.3071E+01
    -22.225  0.1602E+02  0.3291E+01
    -22.212  0.1623E+02  0.3514E+01
    -22.198  0.1638E+02  0.3738E+01
    -22.184  0.1648E+02  0.3965E+01
    -22.170  0.1654E+02  0.4191E+01
    -22.157  0.1655E+02  0.4418E+01
    -22.143  0.1652E+02  0.4645E+01
    -22.129  0.1647E+02  0.4871E+01
    -22.116  0.1638E+02  0.5096E+01
    -22.102  0.1628E+02  0.5319E+01
    -22.088  0.1617E+02  0.5541E+01
    -22.074  0.1605E+02  0.5761E+01
    -22.061  0.1593E+02  0.5979E+01
    -22.047  0.1582E+02  0.6196E+01
    -22.033  0.1572E+02  0.6412E+01
    -22.020  0.1563E+02  0.6626E+01
    -22.006  0.1558E+02  0.6840E+01
    -21.992  0.1555E+02  0.7053E+01
    -21.978  0.1555E+02  0.7267E+01
    -21.965  0.1560E+02  0.7481E+01
    -21.951  0.1568E+02  0.7696E+01
    -21.937  0.1581E+02  0.7913E+01
    -21.924  0.1599E+02  0.8132E+01
    -21.910  0.1621E+02  0.8354E+01
    -21.896  0.1646E+02  0.8580E+01
    -21.882  0.1676E+02  0.8810E+01
    -21.869  0.1709E+02  0.9045E+01
    -21.855  0.1745E+02  0.9284E+01
    -21.841  0.1784E+02  0.9529E+01
    -21.828  0.1824E+02  0.9779E+01
    -21.814  0.1865E+02  0.1003E+02
    -21.800  0.1906E+02  0.1030E+02
    -21.786  0.1947E+02  0.1056E+02
    -21.773  0.1986E+02  0.1084E+02
    -21.759  0.2025E+02  0.1111E+02
    -21.745  0.2061E+02  0.1140E+02
    -21.732  0.2096E+02  0.1168E+02
    -21.718  0.2128E+02  0.1198E+02
    -21.704  0.2158E+02  0.1227E+02
    -21.690  0.2185E+02  0.1257E+02
    -21.677  0.2210E+02  0.1287E+02
    -21.663  0.2234E+02  0.1318E+02
    -21.649  0.2255E+02  0.1349E+02
    -21.635  0.2275E+02  0.1380E+02
    -21.622  0.2293E+02  0.1412E+02
    -21.608  0.2311E+02  0.1443E+02
    -21.594  0.2327E+02  0.1475E+02
    -21.581  0.2342E+02  0.1507E+02
    -21.567  0.2357E+02  0.1540E+02
    -21.553  0.2371E+02  0.1572E+02
    -21.539  0.2384E+02  0.1605E+02
    -21.526  0.2396E+02  0.1638E+02
    -21.512  0.2407E+02  0.1671E+02
    -21.498  0.2416E+02  0.1704E+02
    -21.485  0.2425E+02  0.1737E+02
    -21.471  0.2432E+02  0.1771E+02
    -21.457  0.2437E+02  0.1804E+02
    -21.443  0.2440E+02  0.1838E+02
    -21.430  0.2442E+02  0.1871E+02
    -21.416  0.2441E+02  0.1904E+02
    -21.402  0.2439E+02  0.1938E+02
    -21.389  0.2435E+02  0.1971E+02
    -21.375  0.2429E+02  0.2005E+02
    -21.361  0.2420E+02  0.2038E+02
    -21.347  0.2410E+02  0.2071E+02
    -21.334  0.2398E+02  0.2104E+02
    -21.320  0.2384E+02  0.2137E+02
    -21.306  0.2369E+02  0.2169E+02
    -21.293  0.2352E+02  0.2201E+02
    -21.279  0.2333E+02  0.2233E+02
    -21.265  0.2313E+02  0.2265E+02
    -21.251  0.2292E+02  0.2296E+02
    -21.238  0.2270E+02  0.2328E+02
    -21.224  0.2247E+02  0.2358E+02
    -21.210  0.2224E+02  0.2389E+02
    -21.197  0.2202E+02  0.2419E+02
    -21.183  0.2180E+02  0.2449E+02
    -21.169  0.2159E+02  0.2479E+02
    -21.155  0.2139E+02  0.2508E+02
    -21.142  0.2121E+02  0.2537E+02
    -21.128  0.2105E+02  0.2566E+02
    -21.114  0.2092E+02  0.2595E+02
    -21.101  0.2082E+02  0.2623E+02
    -21.087  0.2074E+02  0.2652E+02
    -21.073  0.2069E+02  0.2680E+02
    -21.059  0.2067E+02  0.2708E+02
    -21.046  0.2067E+02  0.2737E+02
    -21.032  0.2070E+02  0.2765E+02
    -21.018  0.2076E+02  0.2794E+02
    -21.005  0.2083E+02  0.2822E+02
    -20.991  0.2092E+02  0.2851E+02
    -20.977  0.2102E+02  0.2880E+02
    -20.963  0.2114E+02  0.2909E+02
    -20.950  0.2125E+02  0.2938E+02
    -20.936  0.2137E+02  0.2967E+02
    -20.922  0.2149E+02  0.2997E+02
    -20.908  0.2161E+02  0.3026E+02
    -20.895  0.2172E+02  0.3056E+02
    -20.881  0.2182E+02  0.3086E+02
    -20.867  0.2191E+02  0.3116E+02
    -20.854  0.2199E+02  0.3146E+02
    -20.840  0.2207E+02  0.3177E+02
    -20.826  0.2212E+02  0.3207E+02
    -20.812  0.2217E+02  0.3237E+02
    -20.799  0.2220E+02  0.3268E+02
    -20.785  0.2222E+02  0.3298E+02
    -20.771  0.2222E+02  0.3329E+02
    -20.758  0.2220E+02  0.3359E+02
    -20.744  0.2217E+02  0.3390E+02
    -20.730  0.2212E+02  0.3420E+02
    -20.716  0.2205E+02  0.3450E+02
    -20.703  0.2197E+02  0.3480E+02
    -20.689  0.2188E+02  0.3510E+02
    -20.675  0.2178E+02  0.3540E+02
    -20.662  0.2167E+02  0.3570E+02
    -20.648  0.2155E+02  0.3599E+02
    -20.634  0.2143E+02  0.3629E+02
    -20.620  0.2132E+02  0.3658E+02
    -20.607  0.2121E+02  0.3687E+02
    -20.593  0.2111E+02  0.3716E+02
    -20.579  0.2103E+02  0.3745E+02
    -20.566  0.2096E+02  0.3774E+02
    -20.552  0.2093E+02  0.3802E+02
    -20.538  0.2092E+02  0.3831E+02
    -20.524  0.2094E+02  0.3860E+02
    -20.511  0.2099E+02  0.3889E+02
    -20.497  0.2107E+02  0.3918E+02
    -20.483  0.2119E+02  0.3947E+02
    -20.470  0.2134E+02  0.3976E+02
    -20.456  0.2151E+02  0.4005E+02
    -20.442  0.2171E+02  0.4035E+02
    -20.428  0.2193E+02  0.4065E+02
    -20.415  0.2216E+02  0.4096E+02
    -20.401  0.2239E+02  0.4126E+02
    -20.387  0.2263E+02  0.4157E+02
    -20.374  0.2286E+02  0.4189E+02
    -20.360  0.2307E+02  0.4220E+02
    -20.346  0.2327E+02  0.4252E+02
    -20.332  0.2344E+02  0.4284E+02
    -20.319  0.2357E+02  0.4317E+02
    -20.305  0.2368E+02  0.4349E+02
    -20.291  0.2374E+02  0.4382E+02
    -20.277  0.2377E+02  0.4414E+02
    -20.264  0.2377E+02  0.4447E+02
    -20.250  0.2373E+02  0.4480E+02
    -20.236  0.2366E+02  0.4512E+02
    -20.223  0.2357E+02  0.4544E+02
    -20.209  0.2347E+02  0.4577E+02
    -20.195  0.2335E+02  0.4609E+02
    -20.181  0.2322E+02  0.4640E+02
    -20.168  0.2310E+02  0.4672E+02
    -20.154  0.2298E+02  0.4704E+02
    -20.140  0.2287E+02  0.4735E+02
    -20.127  0.2278E+02  0.4766E+02
    -20.113  0.2270E+02  0.4797E+02
    -20.099  0.2263E+02  0.4828E+02
    -20.085  0.2259E+02  0.4859E+02
    -20.072  0.2255E+02  0.4890E+02
    -20.058  0.2252E+02  0.4921E+02
    -20.044  0.2251E+02  0.4952E+02
    -20.031  0.2249E+02  0.4983E+02
    -20.017  0.2247E+02  0.5014E+02
    -20.003  0.2244E+02  0.5045E+02
    -19.989  0.2241E+02  0.5075E+02
    -19.976  0.2236E+02  0.5106E+02
    -19.962  0.2230E+02  0.5137E+02
    -19.948  0.2223E+02  0.5167E+02
    -19.935  0.2214E+02  0.5197E+02
    -19.921  0.2205E+02  0.5228E+02
    -19.907  0.2195E+02  0.5258E+02
    -19.893  0.2185E+02  0.5288E+02
    -19.880  0.2176E+02  0.5318E+02
    -19.866  0.2167E+02  0.5347E+02
    -19.852  0.2160E+02  0.5377E+02
    -19.839  0.2155E+02  0.5407E+02
    -19.825  0.2153E+02  0.5436E+02
    -19.811  0.2153E+02  0.5466E+02
    -19.797  0.2155E+02  0.5495E+02
    -19.784  0.2161E+02  0.5525E+02
    -19.770  0.2169E+02  0.5555E+02
    -19.756  0.2180E+02  0.5584E+02
    -19.743  0.2193E+02  0.5615E+02
    -19.729  0.2207E+02  0.5645E+02
    -19.715  0.2223E+02  0.5675E+02
    -19.701  0.2239E+02  0.5706E+02
    -19.688  0.2254E+02  0.5737E+02
    -19.674  0.2269E+02  0.5768E+02
    -19.660  0.2282E+02  0.5799E+02
    -19.647  0.2293E+02  0.5831E+02
    -19.633  0.2302E+02  0.5862E+02
    -19.619  0.2308E+02  0.5894E+02
    -19.605  0.2311E+02  0.5926E+02
    -19.592  0.2311E+02  0.5958E+02
    -19.578  0.2308E+02  0.5989E+02
    -19.564  0.2302E+02  0.6021E+02
    -19.550  0.2294E+02  0.6052E+02
    -19.537  0.2284E+02  0.6084E+02
    -19.523  0.2272E+02  0.6115E+02
    -19.509  0.2258E+02  0.6146E+02
    -19.496  0.2245E+02  0.6176E+02
    -19.482  0.2231E+02  0.6207E+02
    -19.468  0.2217E+02  0.6237E+02
    -19.454  0.2205E+02  0.6268E+02
    -19.441  0.2194E+02  0.6298E+02
    -19.427  0.2185E+02  0.6328E+02
    -19.413  0.2178E+02  0.6358E+02
    -19.400  0.2173E+02  0.6387E+02
    -19.386  0.2171E+02  0.6417E+02
    -19.372  0.2171E+02  0.6447E+02
    -19.358  0.2174E+02  0.6477E+02
    -19.345  0.2179E+02  0.6507E+02
    -19.331  0.2187E+02  0.6537E+02
    -19.317  0.2196E+02  0.6567E+02
    -19.304  0.2206E+02  0.6597E+02
    -19.290  0.2218E+02  0.6628E+02
    -19.276  0.2231E+02  0.6658E+02
    -19.262  0.2244E+02  0.6689E+02
    -19.249  0.2257E+02  0.6720E+02
    -19.235  0.2270E+02  0.6751E+02
    -19.221  0.2283E+02  0.6782E+02
    -19.208  0.2295E+02  0.6814E+02
    -19.194  0.2306E+02  0.6846E+02
    -19.180  0.2316E+02  0.6877E+02
    -19.166  0.2325E+02  0.6909E+02
    -19.153  0.2333E+02  0.6941E+02
    -19.139  0.2341E+02  0.6973E+02
    -19.125  0.2348E+02  0.7005E+02
    -19.112  0.2355E+02  0.7038E+02
    -19.098  0.2363E+02  0.7070E+02
    -19.084  0.2371E+02  0.7103E+02
    -19.070  0.2381E+02  0.7135E+02
    -19.057  0.2392E+02  0.7168E+02
    -19.043  0.2405E+02  0.7201E+02
    -19.029  0.2420E+02  0.7234E+02
    -19.016  0.2438E+02  0.7268E+02
    -19.002  0.2458E+02  0.7302E+02
    -18.988  0.2481E+02  0.7336E+02
    -18.974  0.2507E+02  0.7370E+02
    -18.961  0.2535E+02  0.7405E+02
    -18.947  0.2564E+02  0.7440E+02
    -18.933  0.2595E+02  0.7476E+02
    -18.919  0.2628E+02  0.7512E+02
    -18.906  0.2660E+02  0.7548E+02
    -18.892  0.2692E+02  0.7585E+02
    -18.878  0.2723E+02  0.7622E+02
    -18.865  0.2752E+02  0.7660E+02
    -18.851  0.2778E+02  0.7698E+02
    -18.837  0.2802E+02  0.7737E+02
    -18.823  0.2822E+02  0.7775E+02
    -18.810  0.2838E+02  0.7814E+02
    -18.796  0.2849E+02  0.7853E+02
    -18.782  0.2856E+02  0.7892E+02
    -18.769  0.2858E+02  0.7932E+02
    -18.755  0.2855E+02  0.7971E+02
    -18.741  0.2848E+02  0.8010E+02
    -18.727  0.2836E+02  0.8049E+02
    -18.714  0.2819E+02  0.8088E+02
    -18.700  0.2799E+02  0.8126E+02
    -18.686  0.2775E+02  0.8164E+02
    -18.673  0.2748E+02  0.8202E+02
    -18.659  0.2718E+02  0.8239E+02
    -18.645  0.2686E+02  0.8276E+02
    -18.631  0.2652E+02  0.8312E+02
    -18.618  0.2617E+02  0.8348E+02
    -18.604  0.2582E+02  0.8383E+02
    -18.590  0.2547E+02  0.8418E+02
    -18.577  0.2513E+02  0.8453E+02
    -18.563  0.2480E+02  0.8487E+02
    -18.549  0.2448E+02  0.8520E+02
    -18.535  0.2419E+02  0.8554E+02
    -18.522  0.2393E+02  0.8586E+02
    -18.508  0.2371E+02  0.8619E+02
    -18.494  0.2352E+02  0.8651E+02
    -18.481  0.2337E+02  0.8683E+02
    -18.467  0.2326E+02  0.8715E+02
    -18.453  0.2320E+02  0.8747E+02
    -18.439  0.2319E+02  0.8779E+02
    -18.426  0.2322E+02  0.8811E+02
    -18.412  0.2329E+02  0.8843E+02
    -18.398  0.2341E+02  0.8875E+02
    -18.385  0.2357E+02  0.8907E+02
    -18.371  0.2376E+02  0.8940E+02
    -18.357  0.2398E+02  0.8973E+02
    -18.343  0.2423E+02  0.9006E+02
    -18.330  0.2451E+02  0.9039E+02
    -18.316  0.2480E+02  0.9073E+02
    -18.302  0.2509E+02  0.9108E+02
    -18.289  0.2540E+02  0.9143E+02
    -18.275  0.2570E+02  0.9178E+02
    -18.261  0.2600E+02  0.9214E+02
    -18.247  0.2628E+02  0.9250E+02
    -18.234  0.2655E+02  0.9286E+02
    -18.220  0.2680E+02  0.9323E+02
    -18.206  0.2704E+02  0.9360E+02
    -18.192  0.2725E+02  0.9397E+02
    -18.179  0.2744E+02  0.9435E+02
    -18.165  0.2760E+02  0.9473E+02
    -18.151  0.2774E+02  0.9511E+02
    -18.138  0.2786E+02  0.9549E+02
    -18.124  0.2796E+02  0.9587E+02
    -18.110  0.2804E+02  0.9626E+02
    -18.096  0.2811E+02  0.9664E+02
    -18.083  0.2815E+02  0.9703E+02
    -18.069  0.2818E+02  0.9742E+02
    -18.055  0.2820E+02  0.9780E+02
    -18.042  0.2821E+02  0.9819E+02
    -18.028  0.2820E+02  0.9858E+02
    -18.014  0.2818E+02  0.9896E+02
    -18.000  0.2815E+02  0.9935E+02
    -17.987  0.2811E+02  0.9974E+02
    -17.973  0.2805E+02  0.1001E+03
    -17.959  0.2798E+02  0.1005E+03
    -17.946  0.2789E+02  0.1009E+03
    -17.932  0.2779E+02  0.1013E+03
    -17.918  0.2767E+02  0.1016E+03
    -17.904  0.2754E+02  0.1020E+03
    -17.891  0.2739E+02  0.1024E+03
    -17.877  0.2722E+02  0.1028E+03
    -17.863  0.2705E+02  0.1031E+03
    -17.850  0.2686E+02  0.1035E+03
    -17.836  0.2667E+02  0.1039E+03
    -17.822  0.2648E+02  0.1042E+03
    -17.808  0.2628E+02  0.1046E+03
    -17.795  0.2609E+02  0.1050E+03
    -17.781  0.2591E+02  0.1053E+03
    -17.767  0.2574E+02  0.1057E+03
    -17.754  0.2559E+02  0.1060E+03
    -17.740  0.2545E+02  0.1064E+03
    -17.726  0.2534E+02  0.1067E+03
    -17.712  0.2525E+02  0.1071E+03
    -17.699  0.2518E+02  0.1074E+03
    -17.685  0.2514E+02  0.1078E+03
    -17.671  0.2513E+02  0.1081E+03
    -17.658  0.2514E+02  0.1084E+03
    -17.644  0.2517E+02  0.1088E+03
    -17.630  0.2522E+02  0.1091E+03
    -17.616  0.2530E+02  0.1095E+03
    -17.603  0.2539E+02  0.1098E+03
    -17.589  0.2550E+02  0.1102E+03
    -17.575  0.2562E+02  0.1105E+03
    -17.561  0.2576E+02  0.1109E+03
    -17.548  0.2590E+02  0.1112E+03
    -17.534  0.2605E+02  0.1116E+03
    -17.520  0.2621E+02  0.1120E+03
    -17.507  0.2637E+02  0.1123E+03
    -17.493  0.2654E+02  0.1127E+03
    -17.479  0.2670E+02  0.1131E+03
    -17.465  0.2687E+02  0.1134E+03
    -17.452  0.2704E+02  0.1138E+03
    -17.438  0.2720E+02  0.1142E+03
    -17.424  0.2737E+02  0.1145E+03
    -17.411  0.2753E+02  0.1149E+03
    -17.397  0.2768E+02  0.1153E+03
    -17.383  0.2783E+02  0.1157E+03
    -17.369  0.2797E+02  0.1161E+03
    -17.356  0.2809E+02  0.1164E+03
    -17.342  0.2820E+02  0.1168E+03
    -17.328  0.2829E+02  0.1172E+03
    -17.315  0.2837E+02  0.1176E+03
    -17.301  0.2841E+02  0.1180E+03
    -17.287  0.2844E+02  0.1184E+03
    -17.273  0.2843E+02  0.1188E+03
    -17.260  0.2840E+02  0.1192E+03
    -17.246  0.2834E+02  0.1196E+03
    -17.232  0.2824E+02  0.1199E+03
    -17.219  0.2812E+02  0.1203E+03
    -17.205  0.2796E+02  0.1207E+03
    -17.191  0.2778E+02  0.1211E+03
    -17.177  0.2757E+02  0.1215E+03
    -17.164  0.2734E+02  0.1218E+03
    -17.150  0.2709E+02  0.1222E+03
    -17.136  0.2682E+02  0.1226E+03
    -17.123  0.2654E+02  0.1230E+03
    -17.109  0.2626E+02  0.1233E+03
    -17.095  0.2597E+02  0.1237E+03
    -17.081  0.2568E+02  0.1240E+03
    -17.068  0.2540E+02  0.1244E+03
    -17.054  0.2513E+02  0.1247E+03
    -17.040  0.2487E+02  0.1251E+03
    -17.027  0.2463E+02  0.1254E+03
    -17.013  0.2441E+02  0.1257E+03
    -16.999  0.2421E+02  0.1261E+03
    -16.985  0.2404E+02  0.1264E+03
    -16.972  0.2388E+02  0.1267E+03
    -16.958  0.2375E+02  0.1270E+03
    -16.944  0.2364E+02  0.1274E+03
    -16.930  0.2355E+02  0.1277E+03
    -16.917  0.2347E+02  0.1280E+03
    -16.903  0.2341E+02  0.1283E+03
    -16.889  0.2336E+02  0.1287E+03
    -16.876  0.2331E+02  0.1290E+03
    -16.862  0.2326E+02  0.1293E+03
    -16.848  0.2322E+02  0.1296E+03
    -16.834  0.2316E+02  0.1299E+03
    -16.821  0.2310E+02  0.1302E+03
    -16.807  0.2302E+02  0.1306E+03
    -16.793  0.2294E+02  0.1309E+03
    -16.780  0.2284E+02  0.1312E+03
    -16.766  0.2273E+02  0.1315E+03
    -16.752  0.2260E+02  0.1318E+03
    -16.738  0.2247E+02  0.1321E+03
    -16.725  0.2233E+02  0.1324E+03
    -16.711  0.2219E+02  0.1327E+03
    -16.697  0.2206E+02  0.1330E+03
    -16.684  0.2193E+02  0.1333E+03
    -16.670  0.2183E+02  0.1336E+03
    -16.656  0.2174E+02  0.1339E+03
    -16.642  0.2168E+02  0.1342E+03
    -16.629  0.2165E+02  0.1345E+03
    -16.615  0.2166E+02  0.1348E+03
    -16.601  0.2171E+02  0.1351E+03
    -16.588  0.2181E+02  0.1354E+03
    -16.574  0.2195E+02  0.1357E+03
    -16.560  0.2213E+02  0.1360E+03
    -16.546  0.2235E+02  0.1363E+03
    -16.533  0.2262E+02  0.1366E+03
    -16.519  0.2292E+02  0.1370E+03
    -16.505  0.2325E+02  0.1373E+03
    -16.492  0.2360E+02  0.1376E+03
    -16.478  0.2397E+02  0.1379E+03
    -16.464  0.2434E+02  0.1383E+03
    -16.450  0.2472E+02  0.1386E+03
    -16.437  0.2509E+02  0.1389E+03
    -16.423  0.2545E+02  0.1393E+03
    -16.409  0.2579E+02  0.1396E+03
    -16.396  0.2611E+02  0.1400E+03
    -16.382  0.2639E+02  0.1404E+03
    -16.368  0.2665E+02  0.1407E+03
    -16.354  0.2686E+02  0.1411E+03
    -16.341  0.2705E+02  0.1415E+03
    -16.327  0.2719E+02  0.1418E+03
    -16.313  0.2730E+02  0.1422E+03
    -16.300  0.2738E+02  0.1426E+03
    -16.286  0.2742E+02  0.1430E+03
    -16.272  0.2743E+02  0.1433E+03
    -16.258  0.2741E+02  0.1437E+03
    -16.245  0.2736E+02  0.1441E+03
    -16.231  0.2728E+02  0.1445E+03
    -16.217  0.2718E+02  0.1448E+03
    -16.203  0.2705E+02  0.1452E+03
    -16.190  0.2690E+02  0.1456E+03
    -16.176  0.2673E+02  0.1460E+03
    -16.162  0.2654E+02  0.1463E+03
    -16.149  0.2633E+02  0.1467E+03
    -16.135  0.2611E+02  0.1470E+03
    -16.121  0.2587E+02  0.1474E+03
    -16.107  0.2563E+02  0.1477E+03
    -16.094  0.2537E+02  0.1481E+03
    -16.080  0.2512E+02  0.1484E+03
    -16.066  0.2486E+02  0.1488E+03
    -16.053  0.2461E+02  0.1491E+03
    -16.039  0.2436E+02  0.1494E+03
    -16.025  0.2413E+02  0.1498E+03
    -16.011  0.2391E+02  0.1501E+03
    -15.998  0.2370E+02  0.1504E+03
    -15.984  0.2351E+02  0.1508E+03
    -15.970  0.2333E+02  0.1511E+03
    -15.957  0.2318E+02  0.1514E+03
    -15.943  0.2304E+02  0.1517E+03
    -15.929  0.2292E+02  0.1520E+03
    -15.915  0.2282E+02  0.1523E+03
    -15.902  0.2273E+02  0.1526E+03
    -15.888  0.2266E+02  0.1530E+03
    -15.874  0.2259E+02  0.1533E+03
    -15.861  0.2254E+02  0.1536E+03
    -15.847  0.2250E+02  0.1539E+03
    -15.833  0.2246E+02  0.1542E+03
    -15.819  0.2243E+02  0.1545E+03
    -15.806  0.2240E+02  0.1548E+03
    -15.792  0.2239E+02  0.1551E+03
    -15.778  0.2237E+02  0.1554E+03
    -15.765  0.2237E+02  0.1557E+03
    -15.751  0.2237E+02  0.1560E+03
    -15.737  0.2239E+02  0.1563E+03
    -15.723  0.2242E+02  0.1567E+03
    -15.710  0.2246E+02  0.1570E+03
    -15.696  0.2252E+02  0.1573E+03
    -15.682  0.2260E+02  0.1576E+03
    -15.669  0.2270E+02  0.1579E+03
    -15.655  0.2281E+02  0.1582E+03
    -15.641  0.2295E+02  0.1585E+03
    -15.627  0.2310E+02  0.1588E+03
    -15.614  0.2327E+02  0.1592E+03
    -15.600  0.2345E+02  0.1595E+03
    -15.586  0.2364E+02  0.1598E+03
    -15.572  0.2383E+02  0.1601E+03
    -15.559  0.2403E+02  0.1605E+03
    -15.545  0.2423E+02  0.1608E+03
    -15.531  0.2443E+02  0.1611E+03
    -15.518  0.2462E+02  0.1615E+03
    -15.504  0.2480E+02  0.1618E+03
    -15.490  0.2496E+02  0.1621E+03
    -15.476  0.2512E+02  0.1625E+03
    -15.463  0.2526E+02  0.1628E+03
    -15.449  0.2539E+02  0.1632E+03
    -15.435  0.2550E+02  0.1635E+03
    -15.422  0.2559E+02  0.1639E+03
    -15.408  0.2568E+02  0.1642E+03
    -15.394  0.2575E+02  0.1646E+03
    -15.380  0.2581E+02  0.1649E+03
    -15.367  0.2586E+02  0.1653E+03
    -15.353  0.2591E+02  0.1657E+03
    -15.339  0.2594E+02  0.1660E+03
    -15.326  0.2597E+02  0.1664E+03
    -15.312  0.2599E+02  0.1667E+03
    -15.298  0.2600E+02  0.1671E+03
    -15.284  0.2601E+02  0.1674E+03
    -15.271  0.2601E+02  0.1678E+03
    -15.257  0.2600E+02  0.1682E+03
    -15.243  0.2599E+02  0.1685E+03
    -15.230  0.2597E+02  0.1689E+03
    -15.216  0.2594E+02  0.1692E+03
    -15.202  0.2591E+02  0.1696E+03
    -15.188  0.2587E+02  0.1699E+03
    -15.175  0.2583E+02  0.1703E+03
    -15.161  0.2578E+02  0.1706E+03
    -15.147  0.2573E+02  0.1710E+03
    -15.134  0.2567E+02  0.1713E+03
    -15.120  0.2561E+02  0.1717E+03
    -15.106  0.2554E+02  0.1720E+03
    -15.092  0.2547E+02  0.1724E+03
    -15.079  0.2540E+02  0.1727E+03
    -15.065  0.2533E+02  0.1731E+03
    -15.051  0.2525E+02  0.1734E+03
    -15.038  0.2517E+02  0.1738E+03
    -15.024  0.2509E+02  0.1741E+03
    -15.010  0.2501E+02  0.1745E+03
    -14.996  0.2492E+02  0.1748E+03
    -14.983  0.2483E+02  0.1752E+03
    -14.969  0.2474E+02  0.1755E+03
    -14.955  0.2464E+02  0.1758E+03
    -14.942  0.2455E+02  0.1762E+03
    -14.928  0.2446E+02  0.1765E+03
    -14.914  0.2437E+02  0.1768E+03
    -14.900  0.2428E+02  0.1772E+03
    -14.887  0.2420E+02  0.1775E+03
    -14.873  0.2414E+02  0.1778E+03
    -14.859  0.2408E+02  0.1782E+03
    -14.845  0.2403E+02  0.1785E+03
    -14.832  0.2400E+02  0.1788E+03
    -14.818  0.2398E+02  0.1791E+03
    -14.804  0.2398E+02  0.1795E+03
    -14.791  0.2399E+02  0.1798E+03
    -14.777  0.2402E+02  0.1801E+03
    -14.763  0.2407E+02  0.1805E+03
    -14.749  0.2413E+02  0.1808E+03
    -14.736  0.2421E+02  0.1811E+03
    -14.722  0.2430E+02  0.1815E+03
    -14.708  0.2440E+02  0.1818E+03
    -14.695  0.2451E+02  0.1821E+03
    -14.681  0.2462E+02  0.1825E+03
    -14.667  0.2474E+02  0.1828E+03
    -14.653  0.2487E+02  0.1832E+03
    -14.640  0.2499E+02  0.1835E+03
    -14.626  0.2512E+02  0.1838E+03
    -14.612  0.2524E+02  0.1842E+03
    -14.599  0.2536E+02  0.1845E+03
    -14.585  0.2549E+02  0.1849E+03
    -14.571  0.2561E+02  0.1852E+03
    -14.557  0.2573E+02  0.1856E+03
    -14.544  0.2584E+02  0.1859E+03
    -14.530  0.2596E+02  0.1863E+03
    -14.516  0.2607E+02  0.1867E+03
    -14.503  0.2617E+02  0.1870E+03
    -14.489  0.2627E+02  0.1874E+03
    -14.475  0.2636E+02  0.1877E+03
    -14.461  0.2645E+02  0.1881E+03
    -14.448  0.2652E+02  0.1885E+03
    -14.434  0.2658E+02  0.1888E+03
    -14.420  0.2662E+02  0.1892E+03
    -14.407  0.2665E+02  0.1896E+03
    -14.393  0.2665E+02  0.1899E+03
    -14.379  0.2664E+02  0.1903E+03
    -14.365  0.2660E+02  0.1907E+03
    -14.352  0.2654E+02  0.1910E+03
    -14.338  0.2646E+02  0.1914E+03
    -14.324  0.2637E+02  0.1917E+03
    -14.311  0.2625E+02  0.1921E+03
    -14.297  0.2612E+02  0.1925E+03
    -14.283  0.2598E+02  0.1928E+03
    -14.269  0.2584E+02  0.1932E+03
    -14.256  0.2569E+02  0.1935E+03
    -14.242  0.2554E+02  0.1939E+03
    -14.228  0.2540E+02  0.1942E+03
    -14.214  0.2527E+02  0.1946E+03
    -14.201  0.2516E+02  0.1949E+03
    -14.187  0.2506E+02  0.1953E+03
    -14.173  0.2498E+02  0.1956E+03
    -14.160  0.2492E+02  0.1959E+03
    -14.146  0.2488E+02  0.1963E+03
    -14.132  0.2487E+02  0.1966E+03
    -14.118  0.2487E+02  0.1970E+03
    -14.105  0.2490E+02  0.1973E+03
    -14.091  0.2494E+02  0.1977E+03
    -14.077  0.2500E+02  0.1980E+03
    -14.064  0.2507E+02  0.1983E+03
    -14.050  0.2515E+02  0.1987E+03
    -14.036  0.2523E+02  0.1990E+03
    -14.022  0.2532E+02  0.1994E+03
    -14.009  0.2542E+02  0.1997E+03
    -13.995  0.2551E+02  0.2001E+03
    -13.981  0.2559E+02  0.2004E+03
    -13.968  0.2568E+02  0.2008E+03
    -13.954  0.2575E+02  0.2011E+03
    -13.940  0.2582E+02  0.2015E+03
    -13.926  0.2588E+02  0.2018E+03
    -13.913  0.2593E+02  0.2022E+03
    -13.899  0.2597E+02  0.2026E+03
    -13.885  0.2600E+02  0.2029E+03
    -13.872  0.2602E+02  0.2033E+03
    -13.858  0.2604E+02  0.2036E+03
    -13.844  0.2604E+02  0.2040E+03
    -13.830  0.2603E+02  0.2043E+03
    -13.817  0.2602E+02  0.2047E+03
    -13.803  0.2599E+02  0.2050E+03
    -13.789  0.2596E+02  0.2054E+03
    -13.776  0.2592E+02  0.2058E+03
    -13.762  0.2587E+02  0.2061E+03
    -13.748  0.2582E+02  0.2065E+03
    -13.734  0.2576E+02  0.2068E+03
    -13.721  0.2569E+02  0.2072E+03
    -13.707  0.2562E+02  0.2075E+03
    -13.693  0.2555E+02  0.2079E+03
    -13.680  0.2548E+02  0.2082E+03
    -13.666  0.2541E+02  0.2086E+03
    -13.652  0.2535E+02  0.2089E+03
    -13.638  0.2529E+02  0.2093E+03
    -13.625  0.2524E+02  0.2096E+03
    -13.611  0.2520E+02  0.2100E+03
    -13.597  0.2517E+02  0.2103E+03
    -13.584  0.2515E+02  0.2107E+03
    -13.570  0.2515E+02  0.2110E+03
    -13.556  0.2517E+02  0.2113E+03
    -13.542  0.2520E+02  0.2117E+03
    -13.529  0.2525E+02  0.2120E+03
    -13.515  0.2531E+02  0.2124E+03
    -13.501  0.2539E+02  0.2127E+03
    -13.487  0.2547E+02  0.2131E+03
    -13.474  0.2557E+02  0.2134E+03
    -13.460  0.2567E+02  0.2138E+03
    -13.446  0.2577E+02  0.2141E+03
    -13.433  0.2587E+02  0.2145E+03
    -13.419  0.2597E+02  0.2148E+03
    -13.405  0.2605E+02  0.2152E+03
    -13.391  0.2613E+02  0.2156E+03
    -13.378  0.2619E+02  0.2159E+03
    -13.364  0.2623E+02  0.2163E+03
    -13.350  0.2625E+02  0.2166E+03
    -13.337  0.2625E+02  0.2170E+03
    -13.323  0.2623E+02  0.2174E+03
    -13.309  0.2619E+02  0.2177E+03
    -13.295  0.2613E+02  0.2181E+03
    -13.282  0.2605E+02  0.2184E+03
    -13.268  0.2596E+02  0.2188E+03
    -13.254  0.2585E+02  0.2191E+03
    -13.241  0.2573E+02  0.2195E+03
    -13.227  0.2561E+02  0.2199E+03
    -13.213  0.2548E+02  0.2202E+03
    -13.199  0.2536E+02  0.2206E+03
    -13.186  0.2524E+02  0.2209E+03
    -13.172  0.2512E+02  0.2212E+03
    -13.158  0.2503E+02  0.2216E+03
    -13.145  0.2494E+02  0.2219E+03
    -13.131  0.2488E+02  0.2223E+03
    -13.117  0.2483E+02  0.2226E+03
    -13.103  0.2480E+02  0.2229E+03
    -13.090  0.2480E+02  0.2233E+03
    -13.076  0.2481E+02  0.2236E+03
    -13.062  0.2485E+02  0.2240E+03
    -13.049  0.2490E+02  0.2243E+03
    -13.035  0.2497E+02  0.2247E+03
    -13.021  0.2505E+02  0.2250E+03