 246 246   0   0
  0.2683268E+02  0.2982000E-08  0.2213561E-08  0.1000000E-08  0.5000000E-15
  1.000000000000000E-004
  CAR 
 unknown system                          
      5.33341977    -24.24182875 2000     -1.60159629      1.00000000
    -24.242  0.0000E+00  0.0000E+00
    -24.227  0.0000E+00  0.0000E+00
    -24.212  0.0000E+00  0.0000E+00
    -24.197  0.0000E+00  0.0000E+00
    -24.183  0.0000E+00  0.0000E+00
    -24.168  0.0000E+00  0.0000E+00
    -24.153  0.0000E+00  0.0000E+00
    -24.138  0.0000E+00  0.0000E+00
    -24.123  0.0000E+00  0.0000E+00
    -24.109  0.0000E+00  0.0000E+00
    -24.094  0.0000E+00  0.0000E+00
    -24.079  0.0000E+00  0.0000E+00
    -24.064  0.0000E+00  0.0000E+00
    -24.049  0.0000E+00  0.0000E+00
    -24.035  0.0000E+00  0.0000E+00
    -24.020  0.0000E+00  0.0000E+00
    -24.005  0.0000E+00  0.0000E+00
    -23.990  0.0000E+00  0.0000E+00
    -23.976  0.0000E+00  0.0000E+00
    -23.961  0.0000E+00  0.0000E+00
    -23.946  0.0000E+00  0.0000E+00
    -23.931  0.0000E+00  0.0000E+00
    -23.916  0.0000E+00  0.0000E+00
    -23.902  0.0000E+00  0.0000E+00
    -23.887  0.0000E+00  0.0000E+00
    -23.872  0.0000E+00  0.0000E+00
    -23.857  0.0000E+00  0.0000E+00
    -23.842  0.0000E+00  0.0000E+00
    -23.828  0.0000E+00  0.0000E+00
    -23.813  0.0000E+00  0.0000E+00
    -23.798  0.0000E+00  0.0000E+00
    -23.783  0.0000E+00  0.0000E+00
    -23.768  0.0000E+00  0.0000E+00
    -23.754  0.0000E+00  0.0000E+00
    -23.739  0.0000E+00  0.0000E+00
    -23.724  0.0000E+00  0.0000E+00
    -23.709  0.0000E+00  0.0000E+00
    -23.694  0.0000E+00  0.0000E+00
    -23.680  0.0000E+00  0.0000E+00
    -23.665  0.0000E+00  0.0000E+00
    -23.650  0.0000E+00  0.0000E+00
    -23.635  0.0000E+00  0.0000E+00
    -23.620  0.0000E+00  0.0000E+00
    -23.606  0.0000E+00  0.0000E+00
    -23.591  0.0000E+00  0.0000E+00
    -23.576  0.0000E+00  0.0000E+00
    -23.561  0.0000E+00  0.0000E+00
    -23.546  0.0000E+00  0.0000E+00
    -23.532  0.0000E+00  0.0000E+00
    -23.517  0.0000E+00  0.0000E+00
    -23.502  0.0000E+00  0.0000E+00
    -23.487  0.0000E+00  0.0000E+00
    -23.472  0.0000E+00  0.0000E+00
    -23.458  0.0000E+00  0.0000E+00
    -23.443  0.0000E+00  0.0000E+00
    -23.428  0.0000E+00  0.0000E+00
    -23.413  0.7504E-14  0.1110E-15
    -23.399  0.1501E-13  0.3331E-15
    -23.384  0.2251E-13  0.6661E-15
    -23.369  0.6003E-13  0.1554E-14
    -23.354  0.1376E-12  0.3590E-14
    -23.339  0.3227E-12  0.8364E-14
    -23.325  0.7204E-12  0.1902E-13
    -23.310  0.1601E-11  0.4271E-13
    -23.295  0.3522E-11  0.9481E-13
    -23.280  0.7691E-11  0.2086E-12
    -23.265  0.1657E-10  0.4537E-12
    -23.251  0.3531E-10  0.9762E-12
    -23.236  0.7449E-10  0.2078E-11
    -23.221  0.1554E-09  0.4377E-11
    -23.206  0.3206E-09  0.9121E-11
    -23.191  0.6545E-09  0.1880E-10
    -23.177  0.1321E-08  0.3835E-10
    -23.162  0.2639E-08  0.7740E-10
    -23.147  0.5213E-08  0.1545E-09
    -23.132  0.1019E-07  0.3053E-09
    -23.117  0.1969E-07  0.5966E-09
    -23.103  0.3765E-07  0.1154E-08
    -23.088  0.7122E-07  0.2207E-08
    -23.073  0.1332E-06  0.4179E-08
    -23.058  0.2466E-06  0.7827E-08
    -23.043  0.4515E-06  0.1451E-07
    -23.029  0.8176E-06  0.2660E-07
    -23.014  0.1465E-05  0.4827E-07
    -22.999  0.2596E-05  0.8668E-07
    -22.984  0.4550E-05  0.1540E-06
    -22.969  0.7891E-05  0.2707E-06
    -22.955  0.1354E-04  0.4710E-06
    -22.940  0.2297E-04  0.8109E-06
    -22.925  0.3857E-04  0.1381E-05
    -22.910  0.6405E-04  0.2329E-05
    -22.895  0.1052E-03  0.3886E-05
    -22.881  0.1710E-03  0.6417E-05
    -22.866  0.2750E-03  0.1049E-04
    -22.851  0.4375E-03  0.1696E-04
    -22.836  0.6886E-03  0.2715E-04
    -22.822  0.1072E-02  0.4301E-04
    -22.807  0.1651E-02  0.6744E-04
    -22.792  0.2517E-02  0.1047E-03
    -22.777  0.3795E-02  0.1608E-03
    -22.762  0.5661E-02  0.2446E-03
    -22.748  0.8355E-02  0.3682E-03
    -22.733  0.1220E-01  0.5487E-03
    -22.718  0.1763E-01  0.8096E-03
    -22.703  0.2521E-01  0.1183E-02
    -22.688  0.3566E-01  0.1710E-02
    -22.674  0.4992E-01  0.2449E-02
    -22.659  0.6915E-01  0.3472E-02
    -22.644  0.9479E-01  0.4874E-02
    -22.629  0.1286E+00  0.6776E-02
    -22.614  0.1726E+00  0.9330E-02
    -22.600  0.2292E+00  0.1272E-01
    -22.585  0.3014E+00  0.1718E-01
    -22.570  0.3921E+00  0.2298E-01
    -22.555  0.5049E+00  0.3045E-01
    -22.540  0.6435E+00  0.3997E-01
    -22.526  0.8117E+00  0.5198E-01
    -22.511  0.1014E+01  0.6698E-01
    -22.496  0.1253E+01  0.8551E-01
    -22.481  0.1532E+01  0.1082E+00
    -22.466  0.1856E+01  0.1356E+00
    -22.452  0.2225E+01  0.1685E+00
    -22.437  0.2640E+01  0.2076E+00
    -22.422  0.3102E+01  0.2535E+00
    -22.407  0.3608E+01  0.3069E+00
    -22.392  0.4155E+01  0.3684E+00
    -22.378  0.4738E+01  0.4384E+00
    -22.363  0.5349E+01  0.5176E+00
    -22.348  0.5979E+01  0.6061E+00
    -22.333  0.6619E+01  0.7040E+00
    -22.318  0.7255E+01  0.8113E+00
    -22.304  0.7875E+01  0.9278E+00
    -22.289  0.8465E+01  0.1053E+01
    -22.274  0.9011E+01  0.1186E+01
    -22.259  0.9500E+01  0.1327E+01
    -22.245  0.9919E+01  0.1474E+01
    -22.230  0.1026E+02  0.1625E+01
    -22.215  0.1051E+02  0.1781E+01
    -22.200  0.1067E+02  0.1939E+01
    -22.185  0.1073E+02  0.2097E+01
    -22.171  0.1069E+02  0.2256E+01
    -22.156  0.1055E+02  0.2412E+01
    -22.141  0.1033E+02  0.2565E+01
    -22.126  0.1003E+02  0.2713E+01
    -22.111  0.9666E+01  0.2856E+01
    -22.097  0.9246E+01  0.2993E+01
    -22.082  0.8788E+01  0.3123E+01
    -22.067  0.8309E+01  0.3246E+01
    -22.052  0.7826E+01  0.3362E+01
    -22.037  0.7355E+01  0.3470E+01
    -22.023  0.6911E+01  0.3573E+01
    -22.008  0.6509E+01  0.3669E+01
    -21.993  0.6160E+01  0.3760E+01
    -21.978  0.5875E+01  0.3847E+01
    -21.963  0.5659E+01  0.3931E+01
    -21.949  0.5518E+01  0.4012E+01
    -21.934  0.5452E+01  0.4093E+01
    -21.919  0.5462E+01  0.4174E+01
    -21.904  0.5544E+01  0.4256E+01
    -21.889  0.5692E+01  0.4340E+01
    -21.875  0.5899E+01  0.4427E+01
    -21.860  0.6158E+01  0.4518E+01
    -21.845  0.6459E+01  0.4614E+01
    -21.830  0.6794E+01  0.4715E+01
    -21.815  0.7154E+01  0.4820E+01
    -21.801  0.7532E+01  0.4932E+01
    -21.786  0.7919E+01  0.5049E+01
    -21.771  0.8310E+01  0.5172E+01
    -21.756  0.8702E+01  0.5301E+01
    -21.741  0.9091E+01  0.5435E+01
    -21.727  0.9477E+01  0.5575E+01
    -21.712  0.9859E+01  0.5721E+01
    -21.697  0.1024E+02  0.5873E+01
    -21.682  0.1062E+02  0.6030E+01
    -21.667  0.1101E+02  0.6193E+01
    -21.653  0.1140E+02  0.6361E+01
    -21.638  0.1180E+02  0.6536E+01
    -21.623  0.1222E+02  0.6717E+01
    -21.608  0.1266E+02  0.6904E+01
    -21.594  0.1312E+02  0.7098E+01
    -21.579  0.1361E+02  0.7300E+01
    -21.564  0.1412E+02  0.7508E+01
    -21.549  0.1466E+02  0.7725E+01
    -21.534  0.1523E+02  0.7951E+01
    -21.520  0.1583E+02  0.8185E+01
    -21.505  0.1646E+02  0.8428E+01
    -21.490  0.1711E+02  0.8682E+01
    -21.475  0.1778E+02  0.8945E+01
    -21.460  0.1847E+02  0.9218E+01
    -21.446  0.1918E+02  0.9502E+01
    -21.431  0.1989E+02  0.9796E+01
    -21.416  0.2061E+02  0.1010E+02
    -21.401  0.2132E+02  0.1042E+02
    -21.386  0.2202E+02  0.1074E+02
    -21.372  0.2270E+02  0.1108E+02
    -21.357  0.2337E+02  0.1142E+02
    -21.342  0.2400E+02  0.1178E+02
    -21.327  0.2461E+02  0.1214E+02
    -21.312  0.2518E+02  0.1252E+02
    -21.298  0.2572E+02  0.1290E+02
    -21.283  0.2622E+02  0.1328E+02
    -21.268  0.2669E+02  0.1368E+02
    -21.253  0.2712E+02  0.1408E+02
    -21.238  0.2753E+02  0.1449E+02
    -21.224  0.2790E+02  0.1490E+02
    -21.209  0.2826E+02  0.1532E+02
    -21.194  0.2859E+02  0.1574E+02
    -21.179  0.2891E+02  0.1617E+02
    -21.164  0.2922E+02  0.1660E+02
    -21.150  0.2952E+02  0.1704E+02
    -21.135  0.2981E+02  0.1748E+02
    -21.120  0.3010E+02  0.1792E+02
    -21.105  0.3038E+02  0.1837E+02
    -21.090  0.3064E+02  0.1883E+02
    -21.076  0.3090E+02  0.1928E+02
    -21.061  0.3113E+02  0.1975E+02
    -21.046  0.3135E+02  0.2021E+02
    -21.031  0.3154E+02  0.2068E+02
    -21.017  0.3171E+02  0.2114E+02
    -21.002  0.3184E+02  0.2162E+02
    -20.987  0.3194E+02  0.2209E+02
    -20.972  0.3200E+02  0.2256E+02
    -20.957  0.3203E+02  0.2304E+02
    -20.943  0.3202E+02  0.2351E+02
    -20.928  0.3198E+02  0.2398E+02
    -20.913  0.3191E+02  0.2445E+02
    -20.898  0.3181E+02  0.2493E+02
    -20.883  0.3169E+02  0.2539E+02
    -20.869  0.3156E+02  0.2586E+02
    -20.854  0.3141E+02  0.2633E+02
    -20.839  0.3124E+02  0.2679E+02
    -20.824  0.3107E+02  0.2725E+02
    -20.809  0.3090E+02  0.2770E+02
    -20.795  0.3071E+02  0.2816E+02
    -20.780  0.3052E+02  0.2861E+02
    -20.765  0.3032E+02  0.2906E+02
    -20.750  0.3012E+02  0.2951E+02
    -20.735  0.2990E+02  0.2995E+02
    -20.721  0.2966E+02  0.3039E+02
    -20.706  0.2941E+02  0.3082E+02
    -20.691  0.2915E+02  0.3125E+02
    -20.676  0.2887E+02  0.3168E+02
    -20.661  0.2857E+02  0.3210E+02
    -20.647  0.2826E+02  0.3252E+02
    -20.632  0.2794E+02  0.3293E+02
    -20.617  0.2762E+02  0.3334E+02
    -20.602  0.2730E+02  0.3375E+02
    -20.587  0.2698E+02  0.3415E+02
    -20.573  0.2668E+02  0.3454E+02
    -20.558  0.2641E+02  0.3493E+02
    -20.543  0.2617E+02  0.3532E+02
    -20.528  0.2597E+02  0.3570E+02
    -20.513  0.2581E+02  0.3608E+02
    -20.499  0.2572E+02  0.3646E+02
    -20.484  0.2569E+02  0.3684E+02
    -20.469  0.2574E+02  0.3723E+02
    -20.454  0.2586E+02  0.3761E+02
    -20.440  0.2606E+02  0.3799E+02
    -20.425  0.2634E+02  0.3838E+02
    -20.410  0.2671E+02  0.3878E+02
    -20.395  0.2716E+02  0.3918E+02
    -20.380  0.2768E+02  0.3959E+02
    -20.366  0.2828E+02  0.4001E+02
    -20.351  0.2894E+02  0.4044E+02
    -20.336  0.2966E+02  0.4088E+02
    -20.321  0.3042E+02  0.4133E+02
    -20.306  0.3120E+02  0.4179E+02
    -20.292  0.3200E+02  0.4226E+02
    -20.277  0.3280E+02  0.4275E+02
    -20.262  0.3358E+02  0.4324E+02
    -20.247  0.3434E+02  0.4375E+02
    -20.232  0.3505E+02  0.4427E+02
    -20.218  0.3570E+02  0.4480E+02
    -20.203  0.3629E+02  0.4533E+02
    -20.188  0.3680E+02  0.4588E+02
    -20.173  0.3723E+02  0.4643E+02
    -20.158  0.3757E+02  0.4699E+02
    -20.144  0.3781E+02  0.4754E+02
    -20.129  0.3797E+02  0.4811E+02
    -20.114  0.3803E+02  0.4867E+02
    -20.099  0.3801E+02  0.4923E+02
    -20.084  0.3790E+02  0.4979E+02
    -20.070  0.3771E+02  0.5035E+02
    -20.055  0.3744E+02  0.5090E+02
    -20.040  0.3711E+02  0.5145E+02
    -20.025  0.3671E+02  0.5200E+02
    -20.010  0.3626E+02  0.5253E+02
    -19.996  0.3576E+02  0.5306E+02
    -19.981  0.3523E+02  0.5358E+02
    -19.966  0.3467E+02  0.5410E+02
    -19.951  0.3409E+02  0.5460E+02
    -19.936  0.3351E+02  0.5510E+02
    -19.922  0.3293E+02  0.5558E+02
    -19.907  0.3236E+02  0.5606E+02
    -19.892  0.3181E+02  0.5653E+02
    -19.877  0.3130E+02  0.5700E+02
    -19.863  0.3083E+02  0.5745E+02
    -19.848  0.3041E+02  0.5790E+02
    -19.833  0.3004E+02  0.5835E+02
    -19.818  0.2975E+02  0.5879E+02
    -19.803  0.2952E+02  0.5922E+02
    -19.789  0.2936E+02  0.5966E+02
    -19.774  0.2927E+02  0.6009E+02
    -19.759  0.2926E+02  0.6052E+02
    -19.744  0.2932E+02  0.6096E+02
    -19.729  0.2944E+02  0.6139E+02
    -19.715  0.2963E+02  0.6183E+02
    -19.700  0.2988E+02  0.6227E+02
    -19.685  0.3018E+02  0.6272E+02
    -19.670  0.3053E+02  0.6317E+02
    -19.655  0.3091E+02  0.6363E+02
    -19.641  0.3132E+02  0.6409E+02
    -19.626  0.3175E+02  0.6456E+02
    -19.611  0.3219E+02  0.6504E+02
    -19.596  0.3265E+02  0.6552E+02
    -19.581  0.3310E+02  0.6601E+02
    -19.567  0.3356E+02  0.6651E+02
    -19.552  0.3401E+02  0.6701E+02
    -19.537  0.3445E+02  0.6752E+02
    -19.522  0.3488E+02  0.6804E+02
    -19.507  0.3529E+02  0.6856E+02
    -19.493  0.3569E+02  0.6909E+02
    -19.478  0.3608E+02  0.6962E+02
    -19.463  0.3646E+02  0.7016E+02
    -19.448  0.3682E+02  0.7070E+02
    -19.433  0.3717E+02  0.7125E+02
    -19.419  0.3751E+02  0.7181E+02
    -19.404  0.3785E+02  0.7237E+02
    -19.389  0.3818E+02  0.7293E+02
    -19.374  0.3850E+02  0.7350E+02
    -19.359  0.3883E+02  0.7408E+02
    -19.345  0.3914E+02  0.7466E+02
    -19.330  0.3946E+02  0.7524E+02
    -19.315  0.3978E+02  0.7583E+02
    -19.300  0.4009E+02  0.7642E+02
    -19.285  0.4039E+02  0.7702E+02
    -19.271  0.4069E+02  0.7762E+02
    -19.256  0.4098E+02  0.7823E+02
    -19.241  0.4126E+02  0.7884E+02
    -19.226  0.4152E+02  0.7945E+02
    -19.212  0.4175E+02  0.8007E+02
    -19.197  0.4196E+02  0.8069E+02
    -19.182  0.4212E+02  0.8132E+02
    -19.167  0.4225E+02  0.8194E+02
    -19.152  0.4233E+02  0.8257E+02
    -19.138  0.4235E+02  0.8319E+02
    -19.123  0.4232E+02  0.8382E+02
    -19.108  0.4223E+02  0.8444E+02
    -19.093  0.4208E+02  0.8507E+02
    -19.078  0.4186E+02  0.8569E+02
    -19.064  0.4158E+02  0.8630E+02
    -19.049  0.4125E+02  0.8691E+02
    -19.034  0.4086E+02  0.8752E+02
    -19.019  0.4044E+02  0.8811E+02
    -19.004  0.3997E+02  0.8871E+02
    -18.990  0.3949E+02  0.8929E+02
    -18.975  0.3899E+02  0.8987E+02
    -18.960  0.3848E+02  0.9044E+02
    -18.945  0.3799E+02  0.9100E+02
    -18.930  0.3753E+02  0.9155E+02
    -18.916  0.3709E+02  0.9210E+02
    -18.901  0.3670E+02  0.9264E+02
    -18.886  0.3636E+02  0.9318E+02
    -18.871  0.3607E+02  0.9372E+02
    -18.856  0.3584E+02  0.9425E+02
    -18.842  0.3567E+02  0.9477E+02
    -18.827  0.3556E+02  0.9530E+02
    -18.812  0.3550E+02  0.9583E+02
    -18.797  0.3549E+02  0.9635E+02
    -18.782  0.3552E+02  0.9688E+02
    -18.768  0.3559E+02  0.9740E+02
    -18.753  0.3568E+02  0.9793E+02
    -18.738  0.3579E+02  0.9846E+02
    -18.723  0.3590E+02  0.9899E+02
    -18.708  0.3601E+02  0.9952E+02
    -18.694  0.3611E+02  0.1001E+03
    -18.679  0.3619E+02  0.1006E+03
    -18.664  0.3626E+02  0.1011E+03
    -18.649  0.3631E+02  0.1017E+03
    -18.635  0.3633E+02  0.1022E+03
    -18.620  0.3633E+02  0.1027E+03
    -18.605  0.3632E+02  0.1033E+03
    -18.590  0.3629E+02  0.1038E+03
    -18.575  0.3625E+02  0.1044E+03
    -18.561  0.3620E+02  0.1049E+03
    -18.546  0.3616E+02  0.1054E+03
    -18.531  0.3612E+02  0.1060E+03
    -18.516  0.3608E+02  0.1065E+03
    -18.501  0.3606E+02  0.1070E+03
    -18.487  0.3605E+02  0.1076E+03
    -18.472  0.3605E+02  0.1081E+03
    -18.457  0.3607E+02  0.1086E+03
    -18.442  0.3610E+02  0.1092E+03
    -18.427  0.3613E+02  0.1097E+03
    -18.413  0.3617E+02  0.1102E+03
    -18.398  0.3620E+02  0.1108E+03
    -18.383  0.3624E+02  0.1113E+03
    -18.368  0.3626E+02  0.1118E+03
    -18.353  0.3627E+02  0.1124E+03
    -18.339  0.3627E+02  0.1129E+03
    -18.324  0.3625E+02  0.1134E+03
    -18.309  0.3621E+02  0.1140E+03
    -18.294  0.3615E+02  0.1145E+03
    -18.279  0.3607E+02  0.1151E+03
    -18.265  0.3597E+02  0.1156E+03
    -18.250  0.3586E+02  0.1161E+03
    -18.235  0.3573E+02  0.1166E+03
    -18.220  0.3560E+02  0.1172E+03
    -18.205  0.3546E+02  0.1177E+03
    -18.191  0.3533E+02  0.1182E+03
    -18.176  0.3520E+02  0.1187E+03
    -18.161  0.3507E+02  0.1193E+03
    -18.146  0.3497E+02  0.1198E+03
    -18.131  0.3487E+02  0.1203E+03
    -18.117  0.3480E+02  0.1208E+03
    -18.102  0.3474E+02  0.1213E+03
    -18.087  0.3471E+02  0.1218E+03
    -18.072  0.3469E+02  0.1223E+03
    -18.058  0.3469E+02  0.1229E+03
    -18.043  0.3471E+02  0.1234E+03
    -18.028  0.3474E+02  0.1239E+03
    -18.013  0.3477E+02  0.1244E+03
    -17.998  0.3481E+02  0.1249E+03
    -17.984  0.3485E+02  0.1254E+03
    -17.969  0.3488E+02  0.1259E+03
    -17.954  0.3491E+02  0.1265E+03
    -17.939  0.3492E+02  0.1270E+03
    -17.924  0.3492E+02  0.1275E+03
    -17.910  0.3490E+02  0.1280E+03
    -17.895  0.3487E+02  0.1285E+03
    -17.880  0.3482E+02  0.1290E+03
    -17.865  0.3476E+02  0.1296E+03
    -17.850  0.3469E+02  0.1301E+03
    -17.836  0.3460E+02  0.1306E+03
    -17.821  0.3450E+02  0.1311E+03
    -17.806  0.3440E+02  0.1316E+03
    -17.791  0.3428E+02  0.1321E+03
    -17.776  0.3416E+02  0.1326E+03
    -17.762  0.3404E+02  0.1331E+03
    -17.747  0.3391E+02  0.1336E+03
    -17.732  0.3378E+02  0.1341E+03
    -17.717  0.3365E+02  0.1346E+03
    -17.702  0.3351E+02  0.1351E+03
    -17.688  0.3338E+02  0.1356E+03
    -17.673  0.3326E+02  0.1361E+03
    -17.658  0.3315E+02  0.1366E+03
    -17.643  0.3304E+02  0.1371E+03
    -17.628  0.3296E+02  0.1376E+03
    -17.614  0.3290E+02  0.1381E+03
    -17.599  0.3287E+02  0.1385E+03
    -17.584  0.3288E+02  0.1390E+03
    -17.569  0.3292E+02  0.1395E+03
    -17.554  0.3301E+02  0.1400E+03
    -17.540  0.3314E+02  0.1405E+03
    -17.525  0.3332E+02  0.1410E+03
    -17.510  0.3354E+02  0.1415E+03
    -17.495  0.3381E+02  0.1420E+03
    -17.481  0.3412E+02  0.1425E+03
    -17.466  0.3447E+02  0.1430E+03
    -17.451  0.3485E+02  0.1435E+03
    -17.436  0.3525E+02  0.1440E+03
    -17.421  0.3567E+02  0.1446E+03
    -17.407  0.3611E+02  0.1451E+03
    -17.392  0.3655E+02  0.1456E+03
    -17.377  0.3698E+02  0.1462E+03
    -17.362  0.3741E+02  0.1467E+03
    -17.347  0.3783E+02  0.1473E+03
    -17.333  0.3823E+02  0.1479E+03
    -17.318  0.3862E+02  0.1484E+03
    -17.303  0.3898E+02  0.1490E+03
    -17.288  0.3932E+02  0.1496E+03
    -17.273  0.3964E+02  0.1502E+03
    -17.259  0.3993E+02  0.1508E+03
    -17.244  0.4019E+02  0.1514E+03
    -17.229  0.4042E+02  0.1520E+03
    -17.214  0.4063E+02  0.1526E+03
    -17.199  0.4080E+02  0.1532E+03
    -17.185  0.4094E+02  0.1538E+03
    -17.170  0.4104E+02  0.1544E+03
    -17.155  0.4110E+02  0.1550E+03
    -17.140  0.4113E+02  0.1556E+03
    -17.125  0.4111E+02  0.1562E+03
    -17.111  0.4105E+02  0.1568E+03
    -17.096  0.4094E+02  0.1574E+03
    -17.081  0.4080E+02  0.1580E+03
    -17.066  0.4062E+02  0.1586E+03
    -17.051  0.4040E+02  0.1592E+03
    -17.037  0.4016E+02  0.1598E+03
    -17.022  0.3989E+02  0.1604E+03
    -17.007  0.3960E+02  0.1610E+03
    -16.992  0.3931E+02  0.1616E+03
    -16.977  0.3901E+02  0.1621E+03
    -16.963  0.3871E+02  0.1627E+03
    -16.948  0.3843E+02  0.1633E+03
    -16.933  0.3816E+02  0.1639E+03
    -16.918  0.3792E+02  0.1644E+03
    -16.903  0.3770E+02  0.1650E+03
    -16.889  0.3752E+02  0.1655E+03
    -16.874  0.3736E+02  0.1661E+03
    -16.859  0.3724E+02  0.1666E+03
    -16.844  0.3716E+02  0.1672E+03
    -16.830  0.3710E+02  0.1677E+03
    -16.815  0.3708E+02  0.1683E+03
    -16.800  0.3708E+02  0.1688E+03
    -16.785  0.3710E+02  0.1694E+03
    -16.770  0.3714E+02  0.1699E+03
    -16.756  0.3720E+02  0.1705E+03
    -16.741  0.3726E+02  0.1710E+03
    -16.726  0.3733E+02  0.1716E+03
    -16.711  0.3740E+02  0.1721E+03
    -16.696  0.3747E+02  0.1727E+03
    -16.682  0.3754E+02  0.1732E+03
    -16.667  0.3759E+02  0.1738E+03
    -16.652  0.3764E+02  0.1744E+03
    -16.637  0.3767E+02  0.1749E+03
    -16.622  0.3769E+02  0.1755E+03
    -16.608  0.3769E+02  0.1760E+03
    -16.593  0.3767E+02  0.1766E+03
    -16.578  0.3764E+02  0.1771E+03
    -16.563  0.3759E+02  0.1777E+03
    -16.548  0.3752E+02  0.1783E+03
    -16.534  0.3744E+02  0.1788E+03
    -16.519  0.3733E+02  0.1794E+03
    -16.504  0.3721E+02  0.1799E+03
    -16.489  0.3707E+02  0.1805E+03
    -16.474  0.3691E+02  0.1810E+03
    -16.460  0.3674E+02  0.1816E+03
    -16.445  0.3656E+02  0.1821E+03
    -16.430  0.3638E+02  0.1826E+03
    -16.415  0.3619E+02  0.1832E+03
    -16.400  0.3600E+02  0.1837E+03
    -16.386  0.3582E+02  0.1842E+03
    -16.371  0.3565E+02  0.1848E+03
    -16.356  0.3549E+02  0.1853E+03
    -16.341  0.3536E+02  0.1858E+03
    -16.326  0.3526E+02  0.1863E+03
    -16.312  0.3518E+02  0.1868E+03
    -16.297  0.3514E+02  0.1874E+03
    -16.282  0.3514E+02  0.1879E+03
    -16.267  0.3517E+02  0.1884E+03
    -16.253  0.3524E+02  0.1889E+03
    -16.238  0.3535E+02  0.1894E+03
    -16.223  0.3550E+02  0.1900E+03
    -16.208  0.3567E+02  0.1905E+03
    -16.193  0.3587E+02  0.1910E+03
    -16.179  0.3609E+02  0.1916E+03
    -16.164  0.3632E+02  0.1921E+03
    -16.149  0.3657E+02  0.1926E+03
    -16.134  0.3681E+02  0.1932E+03
    -16.119  0.3704E+02  0.1937E+03
    -16.105  0.3727E+02  0.1943E+03
    -16.090  0.3748E+02  0.1948E+03
    -16.075  0.3766E+02  0.1954E+03
    -16.060  0.3782E+02  0.1960E+03
    -16.045  0.3795E+02  0.1965E+03
    -16.031  0.3805E+02  0.1971E+03
    -16.016  0.3811E+02  0.1976E+03
    -16.001  0.3815E+02  0.1982E+03
    -15.986  0.3815E+02  0.1988E+03
    -15.971  0.3812E+02  0.1993E+03
    -15.957  0.3807E+02  0.1999E+03
    -15.942  0.3798E+02  0.2005E+03
    -15.927  0.3788E+02  0.2010E+03
    -15.912  0.3776E+02  0.2016E+03
    -15.897  0.3762E+02  0.2021E+03
    -15.883  0.3746E+02  0.2027E+03
    -15.868  0.3730E+02  0.2032E+03
    -15.853  0.3714E+02  0.2038E+03
    -15.838  0.3697E+02  0.2043E+03
    -15.823  0.3680E+02  0.2049E+03
    -15.809  0.3665E+02  0.2054E+03
    -15.794  0.3650E+02  0.2060E+03
    -15.779  0.3636E+02  0.2065E+03
    -15.764  0.3624E+02  0.2070E+03
    -15.749  0.3614E+02  0.2076E+03
    -15.735  0.3606E+02  0.2081E+03
    -15.720  0.3599E+02  0.2086E+03
    -15.705  0.3595E+02  0.2092E+03
    -15.690  0.3592E+02  0.2097E+03
    -15.676  0.3591E+02  0.2102E+03
    -15.661  0.3591E+02  0.2108E+03
    -15.646  0.3593E+02  0.2113E+03
    -15.631  0.3595E+02  0.2118E+03
    -15.616  0.3599E+02  0.2124E+03
    -15.602  0.3603E+02  0.2129E+03
    -15.587  0.3608E+02  0.2134E+03
    -15.572  0.3614E+02  0.2140E+03
    -15.557  0.3619E+02  0.2145E+03
    -15.542  0.3626E+02  0.2150E+03
    -15.528  0.3633E+02  0.2156E+03
    -15.513  0.3641E+02  0.2161E+03
    -15.498  0.3649E+02  0.2167E+03
    -15.483  0.3659E+02  0.2172E+03
    -15.468  0.3670E+02  0.2177E+03
    -15.454  0.3682E+02  0.2183E+03
    -15.439  0.3696E+02  0.2188E+03
    -15.424  0.3711E+02  0.2194E+03
    -15.409  0.3728E+02  0.2199E+03
    -15.394  0.3747E+02  0.2205E+03
    -15.380  0.3766E+02  0.2210E+03
    -15.365  0.3787E+02  0.2216E+03
    -15.350  0.3809E+02  0.2222E+03
    -15.335  0.3831E+02  0.2227E+03
    -15.320  0.3854E+02  0.2233E+03
    -15.306  0.3877E+02  0.2239E+03
    -15.291  0.3900E+02  0.2245E+03
    -15.276  0.3922E+02  0.2250E+03
    -15.261  0.3944E+02  0.2256E+03
    -15.246  0.3965E+02  0.2262E+03
    -15.232  0.3985E+02  0.2268E+03
    -15.217  0.4003E+02  0.2274E+03
    -15.202  0.4020E+02  0.2280E+03
    -15.187  0.4035E+02  0.2286E+03
    -15.172  0.4047E+02  0.2292E+03
    -15.158  0.4058E+02  0.2298E+03
    -15.143  0.4066E+02  0.2304E+03
    -15.128  0.4071E+02  0.2310E+03
    -15.113  0.4073E+02  0.2316E+03
    -15.099  0.4071E+02  0.2322E+03
    -15.084  0.4067E+02  0.2328E+03
    -15.069  0.4059E+02  0.2334E+03
    -15.054  0.4049E+02  0.2340E+03
    -15.039  0.4034E+02  0.2346E+03
    -15.025  0.4017E+02  0.2352E+03
    -15.010  0.3997E+02  0.2358E+03
    -14.995  0.3974E+02  0.2364E+03
    -14.980  0.3949E+02  0.2369E+03
    -14.965  0.3923E+02  0.2375E+03
    -14.951  0.3895E+02  0.2381E+03
    -14.936  0.3866E+02  0.2387E+03
    -14.921  0.3837E+02  0.2392E+03
    -14.906  0.3808E+02  0.2398E+03
    -14.891  0.3781E+02  0.2404E+03
    -14.877  0.3754E+02  0.2409E+03
    -14.862  0.3730E+02  0.2415E+03
    -14.847  0.3708E+02  0.2420E+03
    -14.832  0.3689E+02  0.2426E+03
    -14.817  0.3673E+02  0.2431E+03
    -14.803  0.3660E+02  0.2437E+03
    -14.788  0.3650E+02  0.2442E+03
    -14.773  0.3643E+02  0.2447E+03
    -14.758  0.3640E+02  0.2453E+03
    -14.743  0.3639E+02  0.2458E+03
    -14.729  0.3641E+02  0.2463E+03
    -14.714  0.3645E+02  0.2469E+03
    -14.699  0.3651E+02  0.2474E+03
    -14.684  0.3659E+02  0.2480E+03
    -14.669  0.3667E+02  0.2485E+03
    -14.655  0.3675E+02  0.2491E+03
    -14.640  0.3683E+02  0.2496E+03
    -14.625  0.3691E+02  0.2501E+03
    -14.610  0.3698E+02  0.2507E+03
    -14.595  0.3704E+02  0.2512E+03
    -14.581  0.3708E+02  0.2518E+03
    -14.566  0.3711E+02  0.2523E+03
    -14.551  0.3712E+02  0.2529E+03
    -14.536  0.3712E+02  0.2534E+03
    -14.521  0.3710E+02  0.2540E+03
    -14.507  0.3708E+02  0.2545E+03
    -14.492  0.3704E+02  0.2551E+03
    -14.477  0.3700E+02  0.2556E+03
    -14.462  0.3696E+02  0.2562E+03
    -14.448  0.3692E+02  0.2567E+03
    -14.433  0.3688E+02  0.2573E+03
    -14.418  0.3684E+02  0.2578E+03
    -14.403  0.3681E+02  0.2584E+03
    -14.388  0.3679E+02  0.2589E+03
    -14.374  0.3677E+02  0.2594E+03
    -14.359  0.3677E+02  0.2600E+03
    -14.344  0.3677E+02  0.2605E+03
    -14.329  0.3678E+02  0.2611E+03
    -14.314  0.3679E+02  0.2616E+03
    -14.300  0.3682E+02  0.2622E+03
    -14.285  0.3684E+02  0.2627E+03
    -14.270  0.3688E+02  0.2633E+03
    -14.255  0.3693E+02  0.2638E+03
    -14.240  0.3698E+02  0.2643E+03
    -14.226  0.3705E+02  0.2649E+03
    -14.211  0.3713E+02  0.2654E+03
    -14.196  0.3723E+02  0.2660E+03
    -14.181  0.3734E+02  0.2666E+03
    -14.166  0.3748E+02  0.2671E+03
    -14.152  0.3765E+02  0.2677E+03
    -14.137  0.3785E+02  0.2682E+03
    -14.122  0.3807E+02  0.2688E+03
    -14.107  0.3832E+02  0.2694E+03
    -14.092  0.3861E+02  0.2699E+03
    -14.078  0.3892E+02  0.2705E+03
    -14.063  0.3926E+02  0.2711E+03
    -14.048  0.3963E+02  0.2717E+03
    -14.033  0.4001E+02  0.2723E+03
    -14.018  0.4041E+02  0.2729E+03
    -14.004  0.4082E+02  0.2735E+03
    -13.989  0.4123E+02  0.2741E+03
    -13.974  0.4164E+02  0.2747E+03
    -13.959  0.4203E+02  0.2753E+03
    -13.944  0.4241E+02  0.2759E+03
    -13.930  0.4276E+02  0.2766E+03
    -13.915  0.4308E+02  0.2772E+03
    -13.900  0.4336E+02  0.2778E+03
    -13.885  0.4359E+02  0.2785E+03
    -13.871  0.4378E+02  0.2791E+03
    -13.856  0.4391E+02  0.2798E+03
    -13.841  0.4398E+02  0.2804E+03
    -13.826  0.4399E+02  0.2811E+03
    -13.811  0.4393E+02  0.2817E+03
    -13.797  0.4382E+02  0.2824E+03
    -13.782  0.4365E+02  0.2830E+03
    -13.767  0.4342E+02  0.2837E+03
    -13.752  0.4314E+02  0.2843E+03
    -13.737  0.4282E+02  0.2849E+03
    -13.723  0.4246E+02  0.2856E+03
    -13.708  0.4207E+02  0.2862E+03
    -13.693  0.4167E+02  0.2868E+03
    -13.678  0.4125E+02  0.2874E+03
    -13.663  0.4084E+02  0.2880E+03
    -13.649  0.4043E+02  0.2886E+03
    -13.634  0.4004E+02  0.2892E+03
    -13.619  0.3968E+02  0.2898E+03
    -13.604  0.3935E+02  0.2904E+03
    -13.589  0.3907E+02  0.2910E+03
    -13.575  0.3883E+02  0.2915E+03
    -13.560  0.3863E+02  0.2921E+03
    -13.545  0.3849E+02  0.2927E+03
    -13.530  0.3840E+02  0.2933E+03
    -13.515  0.3837E+02  0.2938E+03
    -13.501  0.3838E+02  0.2944E+03
    -13.486  0.3845E+02  0.2950E+03
    -13.471  0.3857E+02  0.2955E+03
    -13.456  0.3873E+02  0.2961E+03
    -13.441  0.3893E+02  0.2967E+03
    -13.427  0.3917E+02  0.2973E+03
    -13.412  0.3944E+02  0.2978E+03
    -13.397  0.3974E+02  0.2984E+03
    -13.382  0.4006E+02  0.2990E+03
    -13.367  0.4040E+02  0.2996E+03
    -13.353  0.4074E+02  0.3002E+03
    -13.338  0.4109E+02  0.3008E+03
    -13.323  0.4143E+02  0.3014E+03
    -13.308  0.4176E+02  0.3021E+03
    -13.294  0.4207E+02  0.3027E+03
    -13.279  0.4236E+02  0.3033E+03
    -13.264  0.4262E+02  0.3039E+03
    -13.249  0.4284E+02  0.3046E+03
    -13.234  0.4302E+02  0.3052E+03
    -13.220  0.4314E+02  0.3058E+03
    -13.205  0.4322E+02  0.3065E+03
    -13.190  0.4325E+02  0.3071E+03
    -13.175  0.4322E+02  0.3078E+03
    -13.160  0.4313E+02  0.3084E+03
    -13.146  0.4300E+02  0.3090E+03
    -13.131  0.4281E+02  0.3097E+03
    -13.116  0.4259E+02  0.3103E+03
    -13.101  0.4233E+02  0.3109E+03
    -13.086  0.4204E+02  0.3116E+03
    -13.072  0.4173E+02  0.3122E+03
    -13.057  0.4141E+02  0.3128E+03
    -13.042  0.4109E+02  0.3134E+03
    -13.027  0.4078E+02  0.3140E+03
    -13.012  0.4049E+02  0.3146E+03
    -12.998  0.4022E+02  0.3152E+03
    -12.983  0.3998E+02  0.3158E+03
    -12.968  0.3979E+02  0.3164E+03
    -12.953  0.3963E+02  0.3170E+03
    -12.938  0.3951E+02  0.3175E+03
    -12.924  0.3943E+02  0.3181E+03
    -12.909  0.3940E+02  0.3187E+03
    -12.894  0.3940E+02  0.3193E+03
    -12.879  0.3943E+02  0.3199E+03
    -12.864  0.3949E+02  0.3205E+03
    -12.850  0.3957E+02  0.3210E+03
    -12.835  0.3966E+02  0.3216E+03
    -12.820  0.3976E+02  0.3222E+03
    -12.805  0.3986E+02  0.3228E+03
    -12.790  0.3995E+02  0.3234E+03
    -12.776  0.4003E+02  0.3240E+03
    -12.761  0.4009E+02  0.3246E+03
    -12.746  0.4014E+02  0.3252E+03
    -12.731  0.4016E+02  0.3258E+03
    -12.717  0.4017E+02  0.3264E+03
    -12.702  0.4015E+02  0.3270E+03
    -12.687  0.4011E+02  0.3276E+03
    -12.672  0.4005E+02  0.3281E+03
    -12.657  0.3997E+02  0.3287E+03
    -12.643  0.3988E+02  0.3293E+03
    -12.628  0.3978E+02  0.3299E+03
    -12.613  0.3968E+02  0.3305E+03
    -12.598  0.3957E+02  0.3311E+03
    -12.583  0.3947E+02  0.3317E+03
    -12.569  0.3938E+02  0.3323E+03
    -12.554  0.3930E+02  0.3328E+03
    -12.539  0.3924E+02  0.3334E+03
    -12.524  0.3919E+02  0.3340E+03
    -12.509  0.3917E+02  0.3346E+03
    -12.495  0.3918E+02  0.3352E+03
    -12.480  0.3920E+02  0.3357E+03
    -12.465  0.3925E+02  0.3363E+03
    -12.450  0.3933E+02  0.3369E+03
    -12.435  0.3942E+02  0.3375E+03
    -12.421  0.3954E+02  0.3381E+03
    -12.406  0.3967E+02  0.3387E+03
    -12.391  0.3981E+02  0.3392E+03
    -12.376  0.3995E+02  0.3398E+03
    -12.361  0.4010E+02  0.3404E+03
    -12.347  0.4025E+02  0.3410E+03
    -12.332  0.4040E+02  0.3416E+03
    -12.317  0.4055E+02  0.3422E+03
    -12.302  0.4068E+02  0.3428E+03
    -12.287  0.4081E+02  0.3434E+03
    -12.273  0.4094E+02  0.3440E+03
    -12.258  0.4105E+02  0.3446E+03
    -12.243  0.4116E+02  0.3452E+03
    -12.228  0.4126E+02  0.3459E+03
    -12.213  0.4136E+02  0.3465E+03
    -12.199  0.4145E+02  0.3471E+03
    -12.184  0.4155E+02  0.3477E+03
    -12.169  0.4164E+02  0.3483E+03
    -12.154  0.4174E+02  0.3489E+03
    -12.140  0.4183E+02  0.3495E+03
    -12.125  0.4193E+02  0.3502E+03
    -12.110  0.4204E+02  0.3508E+03
    -12.095  0.4214E+02  0.3514E+03
    -12.080  0.4225E+02  0.3520E+03
    -12.066  0.4237E+02  0.3527E+03
    -12.051  0.4248E+02  0.3533E+03
    -12.036  0.4260E+02  0.3539E+03