 136 136   0   0
  0.5087277E+02  0.2068776E-08  0.1672172E-08  0.2000000E-08  0.5000000E-15
  1.000000000000000E-004
  CAR 
 unknown system                          
      3.23122822    -24.29667346 2000     -3.76242250      1.00000000
    -24.297  0.0000E+00  0.0000E+00
    -24.283  0.0000E+00  0.0000E+00
    -24.269  0.0000E+00  0.0000E+00
    -24.255  0.0000E+00  0.0000E+00
    -24.242  0.0000E+00  0.0000E+00
    -24.228  0.0000E+00  0.0000E+00
    -24.214  0.0000E+00  0.0000E+00
    -24.200  0.0000E+00  0.0000E+00
    -24.187  0.0000E+00  0.0000E+00
    -24.173  0.0000E+00  0.0000E+00
    -24.159  0.0000E+00  0.0000E+00
    -24.145  0.0000E+00  0.0000E+00
    -24.131  0.0000E+00  0.0000E+00
    -24.118  0.0000E+00  0.0000E+00
    -24.104  0.0000E+00  0.0000E+00
    -24.090  0.0000E+00  0.0000E+00
    -24.076  0.0000E+00  0.0000E+00
    -24.063  0.0000E+00  0.0000E+00
    -24.049  0.0000E+00  0.0000E+00
    -24.035  0.0000E+00  0.0000E+00
    -24.021  0.0000E+00  0.0000E+00
    -24.007  0.0000E+00  0.0000E+00
    -23.994  0.0000E+00  0.0000E+00
    -23.980  0.0000E+00  0.0000E+00
    -23.966  0.0000E+00  0.0000E+00
    -23.952  0.0000E+00  0.0000E+00
    -23.939  0.0000E+00  0.0000E+00
    -23.925  0.0000E+00  0.0000E+00
    -23.911  0.0000E+00  0.0000E+00
    -23.897  0.0000E+00  0.0000E+00
    -23.884  0.0000E+00  0.0000E+00
    -23.870  0.0000E+00  0.0000E+00
    -23.856  0.0000E+00  0.0000E+00
    -23.842  0.0000E+00  0.0000E+00
    -23.828  0.0000E+00  0.0000E+00
    -23.815  0.0000E+00  0.0000E+00
    -23.801  0.0000E+00  0.0000E+00
    -23.787  0.0000E+00  0.0000E+00
    -23.773  0.0000E+00  0.0000E+00
    -23.760  0.0000E+00  0.0000E+00
    -23.746  0.0000E+00  0.0000E+00
    -23.732  0.0000E+00  0.0000E+00
    -23.718  0.0000E+00  0.0000E+00
    -23.705  0.0000E+00  0.0000E+00
    -23.691  0.0000E+00  0.0000E+00
    -23.677  0.0000E+00  0.0000E+00
    -23.663  0.0000E+00  0.0000E+00
    -23.649  0.0000E+00  0.0000E+00
    -23.636  0.0000E+00  0.0000E+00
    -23.622  0.0000E+00  0.0000E+00
    -23.608  0.0000E+00  0.0000E+00
    -23.594  0.0000E+00  0.0000E+00
    -23.581  0.0000E+00  0.0000E+00
    -23.567  0.0000E+00  0.0000E+00
    -23.553  0.0000E+00  0.0000E+00
    -23.539  0.0000E+00  0.0000E+00
    -23.526  0.0000E+00  0.0000E+00
    -23.512  0.0000E+00  0.0000E+00
    -23.498  0.0000E+00  0.0000E+00
    -23.484  0.0000E+00  0.0000E+00
    -23.470  0.2687E-14  0.3701E-16
    -23.457  0.8062E-14  0.1480E-15
    -23.443  0.1165E-13  0.3084E-15
    -23.429  0.2687E-13  0.6785E-15
    -23.415  0.6271E-13  0.1542E-14
    -23.402  0.1353E-12  0.3405E-14
    -23.388  0.2840E-12  0.7315E-14
    -23.374  0.6118E-12  0.1574E-13
    -23.360  0.1285E-11  0.3344E-13
    -23.346  0.2691E-11  0.7050E-13
    -23.333  0.5568E-11  0.1472E-12
    -23.319  0.1143E-10  0.3046E-12
    -23.305  0.2321E-10  0.6242E-12
    -23.291  0.4671E-10  0.1267E-11
    -23.278  0.9313E-10  0.2550E-11
    -23.264  0.1839E-09  0.5083E-11
    -23.250  0.3598E-09  0.1004E-10
    -23.236  0.6972E-09  0.1964E-10
    -23.223  0.1338E-08  0.3807E-10
    -23.209  0.2545E-08  0.7312E-10
    -23.195  0.4794E-08  0.1391E-09
    -23.181  0.8946E-08  0.2623E-09
    -23.167  0.1654E-07  0.4901E-09
    -23.154  0.3028E-07  0.9070E-09
    -23.140  0.5492E-07  0.1663E-08
    -23.126  0.9868E-07  0.3022E-08
    -23.112  0.1756E-06  0.5441E-08
    -23.099  0.3097E-06  0.9705E-08
    -23.085  0.5408E-06  0.1715E-07
    -23.071  0.9357E-06  0.3004E-07
    -23.057  0.1604E-05  0.5212E-07
    -23.044  0.2723E-05  0.8962E-07
    -23.030  0.4579E-05  0.1527E-06
    -23.016  0.7629E-05  0.2577E-06
    -23.002  0.1259E-04  0.4311E-06
    -22.988  0.2058E-04  0.7145E-06
    -22.975  0.3333E-04  0.1174E-05
    -22.961  0.5348E-04  0.1910E-05
    -22.947  0.8498E-04  0.3080E-05
    -22.933  0.1338E-03  0.4923E-05
    -22.920  0.2087E-03  0.7796E-05
    -22.906  0.3224E-03  0.1224E-04
    -22.892  0.4934E-03  0.1903E-04
    -22.878  0.7480E-03  0.2933E-04
    -22.865  0.1123E-02  0.4480E-04
    -22.851  0.1672E-02  0.6782E-04
    -22.837  0.2464E-02  0.1017E-03
    -22.823  0.3598E-02  0.1513E-03
    -22.809  0.5204E-02  0.2230E-03
    -22.796  0.7458E-02  0.3257E-03
    -22.782  0.1059E-01  0.4715E-03
    -22.768  0.1489E-01  0.6766E-03
    -22.754  0.2075E-01  0.9624E-03
    -22.741  0.2865E-01  0.1357E-02
    -22.727  0.3919E-01  0.1897E-02
    -22.713  0.5310E-01  0.2628E-02
    -22.699  0.7130E-01  0.3610E-02
    -22.685  0.9485E-01  0.4916E-02
    -22.672  0.1250E+00  0.6637E-02
    -22.658  0.1633E+00  0.8886E-02
    -22.644  0.2113E+00  0.1180E-01
    -22.630  0.2710E+00  0.1553E-01
    -22.617  0.3444E+00  0.2027E-01
    -22.603  0.4337E+00  0.2624E-01
    -22.589  0.5413E+00  0.3370E-01
    -22.575  0.6697E+00  0.4292E-01
    -22.562  0.8211E+00  0.5423E-01
    -22.548  0.9981E+00  0.6797E-01
    -22.534  0.1203E+01  0.8453E-01
    -22.520  0.1437E+01  0.1043E+00
    -22.506  0.1702E+01  0.1277E+00
    -22.493  0.1999E+01  0.1553E+00
    -22.479  0.2329E+01  0.1873E+00
    -22.465  0.2691E+01  0.2244E+00
    -22.451  0.3085E+01  0.2669E+00
    -22.438  0.3509E+01  0.3152E+00
    -22.424  0.3962E+01  0.3698E+00
    -22.410  0.4440E+01  0.4309E+00
    -22.396  0.4940E+01  0.4989E+00
    -22.383  0.5458E+01  0.5741E+00
    -22.369  0.5991E+01  0.6566E+00
    -22.355  0.6533E+01  0.7466E+00
    -22.341  0.7082E+01  0.8441E+00
    -22.327  0.7633E+01  0.9492E+00
    -22.314  0.8182E+01  0.1062E+01
    -22.300  0.8727E+01  0.1182E+01
    -22.286  0.9263E+01  0.1310E+01
    -22.272  0.9789E+01  0.1444E+01
    -22.259  0.1030E+02  0.1586E+01
    -22.245  0.1080E+02  0.1735E+01
    -22.231  0.1129E+02  0.1891E+01
    -22.217  0.1176E+02  0.2052E+01
    -22.204  0.1222E+02  0.2221E+01
    -22.190  0.1266E+02  0.2395E+01
    -22.176  0.1309E+02  0.2575E+01
    -22.162  0.1350E+02  0.2761E+01
    -22.148  0.1390E+02  0.2953E+01
    -22.135  0.1429E+02  0.3149E+01
    -22.121  0.1465E+02  0.3351E+01
    -22.107  0.1501E+02  0.3558E+01
    -22.093  0.1535E+02  0.3769E+01
    -22.080  0.1567E+02  0.3985E+01
    -22.066  0.1597E+02  0.4205E+01
    -22.052  0.1626E+02  0.4429E+01
    -22.038  0.1653E+02  0.4657E+01
    -22.024  0.1679E+02  0.4888E+01
    -22.011  0.1702E+02  0.5122E+01
    -21.997  0.1724E+02  0.5360E+01
    -21.983  0.1743E+02  0.5600E+01
    -21.969  0.1762E+02  0.5842E+01
    -21.956  0.1778E+02  0.6087E+01
    -21.942  0.1793E+02  0.6334E+01
    -21.928  0.1807E+02  0.6583E+01
    -21.914  0.1820E+02  0.6834E+01
    -21.901  0.1831E+02  0.7086E+01
    -21.887  0.1841E+02  0.7339E+01
    -21.873  0.1851E+02  0.7594E+01
    -21.859  0.1860E+02  0.7850E+01
    -21.845  0.1868E+02  0.8108E+01
    -21.832  0.1877E+02  0.8366E+01
    -21.818  0.1885E+02  0.8626E+01
    -21.804  0.1893E+02  0.8886E+01
    -21.790  0.1901E+02  0.9148E+01
    -21.777  0.1909E+02  0.9411E+01
    -21.763  0.1917E+02  0.9675E+01
    -21.749  0.1926E+02  0.9940E+01
    -21.735  0.1935E+02  0.1021E+02
    -21.722  0.1943E+02  0.1047E+02
    -21.708  0.1952E+02  0.1074E+02
    -21.694  0.1961E+02  0.1101E+02
    -21.680  0.1969E+02  0.1128E+02
    -21.666  0.1977E+02  0.1156E+02
    -21.653  0.1984E+02  0.1183E+02
    -21.639  0.1990E+02  0.1210E+02
    -21.625  0.1995E+02  0.1238E+02
    -21.611  0.1997E+02  0.1265E+02
    -21.598  0.1998E+02  0.1293E+02
    -21.584  0.1997E+02  0.1320E+02
    -21.570  0.1993E+02  0.1348E+02
    -21.556  0.1986E+02  0.1375E+02
    -21.543  0.1976E+02  0.1402E+02
    -21.529  0.1963E+02  0.1429E+02
    -21.515  0.1946E+02  0.1456E+02
    -21.501  0.1927E+02  0.1483E+02
    -21.487  0.1904E+02  0.1509E+02
    -21.474  0.1879E+02  0.1535E+02
    -21.460  0.1851E+02  0.1560E+02
    -21.446  0.1822E+02  0.1585E+02
    -21.432  0.1790E+02  0.1610E+02
    -21.419  0.1758E+02  0.1634E+02
    -21.405  0.1725E+02  0.1658E+02
    -21.391  0.1693E+02  0.1681E+02
    -21.377  0.1662E+02  0.1704E+02
    -21.363  0.1632E+02  0.1727E+02
    -21.350  0.1605E+02  0.1749E+02
    -21.336  0.1581E+02  0.1771E+02
    -21.322  0.1561E+02  0.1792E+02
    -21.308  0.1546E+02  0.1813E+02
    -21.295  0.1536E+02  0.1834E+02
    -21.281  0.1531E+02  0.1856E+02
    -21.267  0.1531E+02  0.1877E+02
    -21.253  0.1538E+02  0.1898E+02
    -21.240  0.1550E+02  0.1919E+02
    -21.226  0.1569E+02  0.1941E+02
    -21.212  0.1593E+02  0.1963E+02
    -21.198  0.1623E+02  0.1985E+02
    -21.184  0.1657E+02  0.2008E+02
    -21.171  0.1697E+02  0.2031E+02
    -21.157  0.1740E+02  0.2055E+02
    -21.143  0.1787E+02  0.2080E+02
    -21.129  0.1836E+02  0.2105E+02
    -21.116  0.1887E+02  0.2131E+02
    -21.102  0.1939E+02  0.2158E+02
    -21.088  0.1990E+02  0.2185E+02
    -21.074  0.2041E+02  0.2213E+02
    -21.061  0.2089E+02  0.2242E+02
    -21.047  0.2135E+02  0.2271E+02
    -21.033  0.2177E+02  0.2301E+02
    -21.019  0.2214E+02  0.2332E+02
    -21.005  0.2245E+02  0.2363E+02
    -20.992  0.2271E+02  0.2394E+02
    -20.978  0.2289E+02  0.2426E+02
    -20.964  0.2301E+02  0.2457E+02
    -20.950  0.2306E+02  0.2489E+02
    -20.937  0.2303E+02  0.2521E+02
    -20.923  0.2294E+02  0.2552E+02
    -20.909  0.2277E+02  0.2584E+02
    -20.895  0.2255E+02  0.2615E+02
    -20.882  0.2226E+02  0.2645E+02
    -20.868  0.2193E+02  0.2676E+02
    -20.854  0.2155E+02  0.2705E+02
    -20.840  0.2115E+02  0.2734E+02
    -20.826  0.2072E+02  0.2763E+02
    -20.813  0.2029E+02  0.2791E+02
    -20.799  0.1985E+02  0.2818E+02
    -20.785  0.1943E+02  0.2845E+02
    -20.771  0.1904E+02  0.2871E+02
    -20.758  0.1867E+02  0.2897E+02
    -20.744  0.1834E+02  0.2922E+02
    -20.730  0.1806E+02  0.2947E+02
    -20.716  0.1783E+02  0.2972E+02
    -20.702  0.1766E+02  0.2996E+02
    -20.689  0.1754E+02  0.3020E+02
    -20.675  0.1747E+02  0.3044E+02
    -20.661  0.1746E+02  0.3068E+02
    -20.647  0.1750E+02  0.3092E+02
    -20.634  0.1759E+02  0.3117E+02
    -20.620  0.1772E+02  0.3141E+02
    -20.606  0.1788E+02  0.3166E+02
    -20.592  0.1807E+02  0.3190E+02
    -20.579  0.1829E+02  0.3216E+02
    -20.565  0.1852E+02  0.3241E+02
    -20.551  0.1877E+02  0.3267E+02
    -20.537  0.1902E+02  0.3293E+02
    -20.523  0.1928E+02  0.3320E+02
    -20.510  0.1954E+02  0.3347E+02
    -20.496  0.1980E+02  0.3374E+02
    -20.482  0.2005E+02  0.3402E+02
    -20.468  0.2031E+02  0.3430E+02
    -20.455  0.2056E+02  0.3458E+02
    -20.441  0.2081E+02  0.3486E+02
    -20.427  0.2106E+02  0.3515E+02
    -20.413  0.2132E+02  0.3545E+02
    -20.400  0.2158E+02  0.3575E+02
    -20.386  0.2185E+02  0.3605E+02
    -20.372  0.2213E+02  0.3635E+02
    -20.358  0.2240E+02  0.3666E+02
    -20.344  0.2269E+02  0.3697E+02
    -20.331  0.2297E+02  0.3729E+02
    -20.317  0.2325E+02  0.3761E+02
    -20.303  0.2353E+02  0.3793E+02
    -20.289  0.2379E+02  0.3826E+02
    -20.276  0.2403E+02  0.3859E+02
    -20.262  0.2426E+02  0.3893E+02
    -20.248  0.2445E+02  0.3926E+02
    -20.234  0.2461E+02  0.3960E+02
    -20.221  0.2473E+02  0.3994E+02
    -20.207  0.2482E+02  0.4028E+02
    -20.193  0.2486E+02  0.4063E+02
    -20.179  0.2485E+02  0.4097E+02
    -20.165  0.2480E+02  0.4131E+02
    -20.152  0.2471E+02  0.4165E+02
    -20.138  0.2457E+02  0.4199E+02
    -20.124  0.2440E+02  0.4232E+02
    -20.110  0.2420E+02  0.4266E+02
    -20.097  0.2396E+02  0.4299E+02
    -20.083  0.2371E+02  0.4331E+02
    -20.069  0.2344E+02  0.4364E+02
    -20.055  0.2316E+02  0.4396E+02
    -20.041  0.2287E+02  0.4427E+02
    -20.028  0.2259E+02  0.4458E+02
    -20.014  0.2231E+02  0.4489E+02
    -20.000  0.2205E+02  0.4519E+02
    -19.986  0.2180E+02  0.4549E+02
    -19.973  0.2158E+02  0.4579E+02
    -19.959  0.2139E+02  0.4608E+02
    -19.945  0.2122E+02  0.4638E+02
    -19.931  0.2109E+02  0.4667E+02
    -19.918  0.2100E+02  0.4696E+02
    -19.904  0.2095E+02  0.4724E+02
    -19.890  0.2094E+02  0.4753E+02
    -19.876  0.2097E+02  0.4782E+02
    -19.862  0.2104E+02  0.4811E+02
    -19.849  0.2115E+02  0.4840E+02
    -19.835  0.2129E+02  0.4870E+02
    -19.821  0.2145E+02  0.4899E+02
    -19.807  0.2164E+02  0.4929E+02
    -19.794  0.2185E+02  0.4959E+02
    -19.780  0.2206E+02  0.4989E+02
    -19.766  0.2228E+02  0.5020E+02
    -19.752  0.2248E+02  0.5051E+02
    -19.739  0.2267E+02  0.5082E+02
    -19.725  0.2283E+02  0.5114E+02
    -19.711  0.2295E+02  0.5145E+02
    -19.697  0.2303E+02  0.5177E+02
    -19.683  0.2306E+02  0.5209E+02
    -19.670  0.2304E+02  0.5241E+02
    -19.656  0.2296E+02  0.5272E+02
    -19.642  0.2283E+02  0.5304E+02
    -19.628  0.2263E+02  0.5335E+02
    -19.615  0.2239E+02  0.5366E+02
    -19.601  0.2209E+02  0.5396E+02
    -19.587  0.2175E+02  0.5426E+02
    -19.573  0.2138E+02  0.5455E+02
    -19.560  0.2097E+02  0.5484E+02
    -19.546  0.2055E+02  0.5513E+02
    -19.532  0.2012E+02  0.5540E+02
    -19.518  0.1969E+02  0.5567E+02
    -19.504  0.1928E+02  0.5594E+02
    -19.491  0.1888E+02  0.5620E+02
    -19.477  0.1852E+02  0.5645E+02
    -19.463  0.1820E+02  0.5670E+02
    -19.449  0.1792E+02  0.5695E+02
    -19.436  0.1770E+02  0.5720E+02
    -19.422  0.1753E+02  0.5744E+02
    -19.408  0.1743E+02  0.5768E+02
    -19.394  0.1738E+02  0.5792E+02
    -19.380  0.1740E+02  0.5816E+02
    -19.367  0.1748E+02  0.5840E+02
    -19.353  0.1761E+02  0.5864E+02
    -19.339  0.1779E+02  0.5888E+02
    -19.325  0.1802E+02  0.5913E+02
    -19.312  0.1829E+02  0.5938E+02
    -19.298  0.1858E+02  0.5964E+02
    -19.284  0.1891E+02  0.5990E+02
    -19.270  0.1925E+02  0.6017E+02
    -19.257  0.1959E+02  0.6044E+02
    -19.243  0.1995E+02  0.6071E+02
    -19.229  0.2030E+02  0.6099E+02
    -19.215  0.2065E+02  0.6127E+02
    -19.201  0.2099E+02  0.6156E+02
    -19.188  0.2132E+02  0.6186E+02
    -19.174  0.2163E+02  0.6215E+02
    -19.160  0.2194E+02  0.6246E+02
    -19.146  0.2224E+02  0.6276E+02
    -19.133  0.2253E+02  0.6307E+02
    -19.119  0.2282E+02  0.6339E+02
    -19.105  0.2309E+02  0.6371E+02
    -19.091  0.2337E+02  0.6403E+02
    -19.078  0.2364E+02  0.6435E+02
    -19.064  0.2390E+02  0.6468E+02
    -19.050  0.2417E+02  0.6501E+02
    -19.036  0.2442E+02  0.6535E+02
    -19.022  0.2466E+02  0.6569E+02
    -19.009  0.2490E+02  0.6603E+02
    -18.995  0.2511E+02  0.6638E+02
    -18.981  0.2530E+02  0.6673E+02
    -18.967  0.2546E+02  0.6708E+02
    -18.954  0.2559E+02  0.6743E+02
    -18.940  0.2569E+02  0.6778E+02
    -18.926  0.2574E+02  0.6814E+02
    -18.912  0.2576E+02  0.6849E+02
    -18.899  0.2572E+02  0.6885E+02
    -18.885  0.2564E+02  0.6920E+02
    -18.871  0.2552E+02  0.6955E+02
    -18.857  0.2535E+02  0.6990E+02
    -18.843  0.2513E+02  0.7025E+02
    -18.830  0.2488E+02  0.7059E+02
    -18.816  0.2460E+02  0.7093E+02
    -18.802  0.2428E+02  0.7126E+02
    -18.788  0.2395E+02  0.7159E+02
    -18.775  0.2359E+02  0.7192E+02
    -18.761  0.2323E+02  0.7224E+02
    -18.747  0.2287E+02  0.7255E+02
    -18.733  0.2250E+02  0.7286E+02
    -18.719  0.2215E+02  0.7317E+02
    -18.706  0.2180E+02  0.7347E+02
    -18.692  0.2148E+02  0.7376E+02
    -18.678  0.2119E+02  0.7406E+02
    -18.664  0.2092E+02  0.7434E+02
    -18.651  0.2068E+02  0.7463E+02
    -18.637  0.2048E+02  0.7491E+02
    -18.623  0.2031E+02  0.7519E+02
    -18.609  0.2019E+02  0.7547E+02
    -18.596  0.2010E+02  0.7574E+02
    -18.582  0.2005E+02  0.7602E+02
    -18.568  0.2003E+02  0.7630E+02
    -18.554  0.2006E+02  0.7657E+02
    -18.540  0.2012E+02  0.7685E+02
    -18.527  0.2021E+02  0.7713E+02
    -18.513  0.2033E+02  0.7741E+02
    -18.499  0.2048E+02  0.7769E+02
    -18.485  0.2066E+02  0.7797E+02
    -18.472  0.2085E+02  0.7826E+02
    -18.458  0.2107E+02  0.7855E+02
    -18.444  0.2130E+02  0.7885E+02
    -18.430  0.2155E+02  0.7914E+02
    -18.417  0.2180E+02  0.7944E+02
    -18.403  0.2206E+02  0.7975E+02
    -18.389  0.2232E+02  0.8005E+02
    -18.375  0.2258E+02  0.8036E+02
    -18.361  0.2285E+02  0.8068E+02
    -18.348  0.2310E+02  0.8100E+02
    -18.334  0.2335E+02  0.8132E+02
    -18.320  0.2359E+02  0.8164E+02
    -18.306  0.2382E+02  0.8197E+02
    -18.293  0.2403E+02  0.8230E+02
    -18.279  0.2423E+02  0.8264E+02
    -18.265  0.2441E+02  0.8297E+02
    -18.251  0.2457E+02  0.8331E+02
    -18.238  0.2471E+02  0.8365E+02
    -18.224  0.2483E+02  0.8399E+02
    -18.210  0.2493E+02  0.8434E+02
    -18.196  0.2501E+02  0.8468E+02
    -18.182  0.2506E+02  0.8503E+02
    -18.169  0.2509E+02  0.8537E+02
    -18.155  0.2510E+02  0.8572E+02
    -18.141  0.2510E+02  0.8606E+02
    -18.127  0.2507E+02  0.8641E+02
    -18.114  0.2503E+02  0.8675E+02
    -18.100  0.2497E+02  0.8710E+02
    -18.086  0.2491E+02  0.8744E+02
    -18.072  0.2483E+02  0.8778E+02
    -18.058  0.2476E+02  0.8812E+02
    -18.045  0.2469E+02  0.8846E+02
    -18.031  0.2462E+02  0.8880E+02
    -18.017  0.2456E+02  0.8914E+02
    -18.003  0.2452E+02  0.8948E+02
    -17.990  0.2449E+02  0.8981E+02
    -17.976  0.2448E+02  0.9015E+02
    -17.962  0.2449E+02  0.9049E+02
    -17.948  0.2453E+02  0.9083E+02
    -17.935  0.2459E+02  0.9116E+02
    -17.921  0.2468E+02  0.9150E+02
    -17.907  0.2479E+02  0.9185E+02
    -17.893  0.2492E+02  0.9219E+02
    -17.879  0.2507E+02  0.9253E+02
    -17.866  0.2523E+02  0.9288E+02
    -17.852  0.2539E+02  0.9323E+02
    -17.838  0.2556E+02  0.9358E+02
    -17.824  0.2573E+02  0.9394E+02
    -17.811  0.2588E+02  0.9429E+02
    -17.797  0.2602E+02  0.9465E+02
    -17.783  0.2613E+02  0.9501E+02
    -17.769  0.2622E+02  0.9537E+02
    -17.756  0.2627E+02  0.9574E+02
    -17.742  0.2630E+02  0.9610E+02
    -17.728  0.2628E+02  0.9646E+02
    -17.714  0.2623E+02  0.9682E+02
    -17.700  0.2615E+02  0.9718E+02
    -17.687  0.2603E+02  0.9754E+02
    -17.673  0.2588E+02  0.9790E+02
    -17.659  0.2571E+02  0.9825E+02
    -17.645  0.2552E+02  0.9860E+02
    -17.632  0.2532E+02  0.9895E+02
    -17.618  0.2512E+02  0.9930E+02
    -17.604  0.2491E+02  0.9964E+02
    -17.590  0.2470E+02  0.9998E+02
    -17.577  0.2451E+02  0.1003E+03
    -17.563  0.2432E+02  0.1007E+03
    -17.549  0.2415E+02  0.1010E+03
    -17.535  0.2400E+02  0.1013E+03
    -17.521  0.2387E+02  0.1016E+03
    -17.508  0.2376E+02  0.1020E+03
    -17.494  0.2366E+02  0.1023E+03
    -17.480  0.2357E+02  0.1026E+03
    -17.466  0.2350E+02  0.1029E+03
    -17.453  0.2343E+02  0.1033E+03
    -17.439  0.2336E+02  0.1036E+03
    -17.425  0.2329E+02  0.1039E+03
    -17.411  0.2322E+02  0.1042E+03
    -17.397  0.2314E+02  0.1045E+03
    -17.384  0.2304E+02  0.1049E+03
    -17.370  0.2293E+02  0.1052E+03
    -17.356  0.2280E+02  0.1055E+03
    -17.342  0.2265E+02  0.1058E+03
    -17.329  0.2249E+02  0.1061E+03
    -17.315  0.2231E+02  0.1064E+03
    -17.301  0.2211E+02  0.1067E+03
    -17.287  0.2189E+02  0.1070E+03
    -17.274  0.2167E+02  0.1073E+03
    -17.260  0.2144E+02  0.1076E+03
    -17.246  0.2120E+02  0.1079E+03
    -17.232  0.2097E+02  0.1082E+03
    -17.218  0.2075E+02  0.1085E+03
    -17.205  0.2054E+02  0.1088E+03
    -17.191  0.2034E+02  0.1091E+03
    -17.177  0.2017E+02  0.1093E+03
    -17.163  0.2002E+02  0.1096E+03
    -17.150  0.1990E+02  0.1099E+03
    -17.136  0.1982E+02  0.1102E+03
    -17.122  0.1976E+02  0.1104E+03
    -17.108  0.1975E+02  0.1107E+03
    -17.095  0.1977E+02  0.1110E+03
    -17.081  0.1983E+02  0.1112E+03
    -17.067  0.1993E+02  0.1115E+03
    -17.053  0.2006E+02  0.1118E+03
    -17.039  0.2022E+02  0.1121E+03
    -17.026  0.2041E+02  0.1124E+03
    -17.012  0.2062E+02  0.1126E+03
    -16.998  0.2084E+02  0.1129E+03
    -16.984  0.2109E+02  0.1132E+03
    -16.971  0.2134E+02  0.1135E+03
    -16.957  0.2159E+02  0.1138E+03
    -16.943  0.2184E+02  0.1141E+03
    -16.929  0.2208E+02  0.1144E+03
    -16.916  0.2231E+02  0.1147E+03
    -16.902  0.2251E+02  0.1150E+03
    -16.888  0.2270E+02  0.1153E+03
    -16.874  0.2285E+02  0.1157E+03
    -16.860  0.2296E+02  0.1160E+03
    -16.847  0.2304E+02  0.1163E+03
    -16.833  0.2308E+02  0.1166E+03
    -16.819  0.2307E+02  0.1169E+03
    -16.805  0.2302E+02  0.1172E+03
    -16.792  0.2292E+02  0.1176E+03
    -16.778  0.2278E+02  0.1179E+03
    -16.764  0.2259E+02  0.1182E+03
    -16.750  0.2235E+02  0.1185E+03
    -16.736  0.2208E+02  0.1188E+03
    -16.723  0.2178E+02  0.1191E+03
    -16.709  0.2145E+02  0.1194E+03
    -16.695  0.2110E+02  0.1197E+03
    -16.681  0.2074E+02  0.1200E+03
    -16.668  0.2038E+02  0.1202E+03
    -16.654  0.2003E+02  0.1205E+03
    -16.640  0.1969E+02  0.1208E+03
    -16.626  0.1937E+02  0.1211E+03
    -16.613  0.1908E+02  0.1213E+03
    -16.599  0.1883E+02  0.1216E+03
    -16.585  0.1862E+02  0.1218E+03
    -16.571  0.1846E+02  0.1221E+03
    -16.557  0.1834E+02  0.1223E+03
    -16.544  0.1826E+02  0.1226E+03
    -16.530  0.1823E+02  0.1228E+03
    -16.516  0.1824E+02  0.1231E+03
    -16.502  0.1828E+02  0.1233E+03
    -16.489  0.1835E+02  0.1236E+03
    -16.475  0.1844E+02  0.1239E+03
    -16.461  0.1854E+02  0.1241E+03
    -16.447  0.1864E+02  0.1244E+03
    -16.434  0.1874E+02  0.1246E+03
    -16.420  0.1884E+02  0.1249E+03
    -16.406  0.1892E+02  0.1251E+03
    -16.392  0.1898E+02  0.1254E+03
    -16.378  0.1902E+02  0.1257E+03
    -16.365  0.1904E+02  0.1259E+03
    -16.351  0.1903E+02  0.1262E+03
    -16.337  0.1901E+02  0.1265E+03
    -16.323  0.1898E+02  0.1267E+03
    -16.310  0.1893E+02  0.1270E+03
    -16.296  0.1888E+02  0.1272E+03
    -16.282  0.1884E+02  0.1275E+03
    -16.268  0.1880E+02  0.1278E+03
    -16.255  0.1877E+02  0.1280E+03
    -16.241  0.1877E+02  0.1283E+03
    -16.227  0.1880E+02  0.1285E+03
    -16.213  0.1885E+02  0.1288E+03
    -16.199  0.1894E+02  0.1291E+03
    -16.186  0.1906E+02  0.1293E+03
    -16.172  0.1921E+02  0.1296E+03
    -16.158  0.1940E+02  0.1298E+03
    -16.144  0.1961E+02  0.1301E+03
    -16.131  0.1986E+02  0.1304E+03
    -16.117  0.2013E+02  0.1307E+03
    -16.103  0.2042E+02  0.1309E+03
    -16.089  0.2072E+02  0.1312E+03
    -16.075  0.2103E+02  0.1315E+03
    -16.062  0.2134E+02  0.1318E+03
    -16.048  0.2165E+02  0.1321E+03
    -16.034  0.2195E+02  0.1324E+03
    -16.020  0.2224E+02  0.1327E+03
    -16.007  0.2252E+02  0.1330E+03
    -15.993  0.2278E+02  0.1333E+03
    -15.979  0.2302E+02  0.1337E+03
    -15.965  0.2324E+02  0.1340E+03
    -15.952  0.2344E+02  0.1343E+03
    -15.938  0.2361E+02  0.1346E+03
    -15.924  0.2377E+02  0.1350E+03
    -15.910  0.2390E+02  0.1353E+03
    -15.896  0.2400E+02  0.1356E+03
    -15.883  0.2409E+02  0.1360E+03
    -15.869  0.2416E+02  0.1363E+03
    -15.855  0.2420E+02  0.1366E+03
    -15.841  0.2423E+02  0.1369E+03
    -15.828  0.2424E+02  0.1373E+03
    -15.814  0.2422E+02  0.1376E+03
    -15.800  0.2420E+02  0.1380E+03
    -15.786  0.2415E+02  0.1383E+03
    -15.773  0.2409E+02  0.1386E+03
    -15.759  0.2401E+02  0.1389E+03
    -15.745  0.2392E+02  0.1393E+03
    -15.731  0.2382E+02  0.1396E+03
    -15.717  0.2370E+02  0.1399E+03
    -15.704  0.2358E+02  0.1403E+03
    -15.690  0.2345E+02  0.1406E+03
    -15.676  0.2331E+02  0.1409E+03
    -15.662  0.2317E+02  0.1412E+03
    -15.649  0.2303E+02  0.1415E+03
    -15.635  0.2288E+02  0.1418E+03
    -15.621  0.2274E+02  0.1422E+03
    -15.607  0.2261E+02  0.1425E+03
    -15.594  0.2247E+02  0.1428E+03
    -15.580  0.2235E+02  0.1431E+03
    -15.566  0.2223E+02  0.1434E+03
    -15.552  0.2213E+02  0.1437E+03
    -15.538  0.2203E+02  0.1440E+03
    -15.525  0.2195E+02  0.1443E+03
    -15.511  0.2188E+02  0.1446E+03
    -15.497  0.2183E+02  0.1449E+03
    -15.483  0.2180E+02  0.1452E+03
    -15.470  0.2178E+02  0.1455E+03
    -15.456  0.2178E+02  0.1458E+03
    -15.442  0.2180E+02  0.1461E+03
    -15.428  0.2184E+02  0.1464E+03
    -15.414  0.2189E+02  0.1467E+03
    -15.401  0.2197E+02  0.1470E+03
    -15.387  0.2205E+02  0.1473E+03
    -15.373  0.2215E+02  0.1476E+03
    -15.359  0.2226E+02  0.1479E+03
    -15.346  0.2238E+02  0.1482E+03
    -15.332  0.2251E+02  0.1485E+03
    -15.318  0.2263E+02  0.1489E+03
    -15.304  0.2275E+02  0.1492E+03
    -15.291  0.2287E+02  0.1495E+03
    -15.277  0.2297E+02  0.1498E+03
    -15.263  0.2307E+02  0.1501E+03
    -15.249  0.2315E+02  0.1504E+03
    -15.235  0.2321E+02  0.1508E+03
    -15.222  0.2326E+02  0.1511E+03
    -15.208  0.2328E+02  0.1514E+03
    -15.194  0.2329E+02  0.1517E+03
    -15.180  0.2328E+02  0.1520E+03
    -15.167  0.2326E+02  0.1524E+03
    -15.153  0.2322E+02  0.1527E+03
    -15.139  0.2317E+02  0.1530E+03
    -15.125  0.2311E+02  0.1533E+03
    -15.112  0.2304E+02  0.1536E+03
    -15.098  0.2297E+02  0.1540E+03
    -15.084  0.2290E+02  0.1543E+03
    -15.070  0.2283E+02  0.1546E+03
    -15.056  0.2275E+02  0.1549E+03
    -15.043  0.2268E+02  0.1552E+03
    -15.029  0.2262E+02  0.1555E+03
    -15.015  0.2256E+02  0.1558E+03
    -15.001  0.2250E+02  0.1561E+03
    -14.988  0.2245E+02  0.1565E+03
    -14.974  0.2240E+02  0.1568E+03
    -14.960  0.2236E+02  0.1571E+03
    -14.946  0.2232E+02  0.1574E+03
    -14.933  0.2228E+02  0.1577E+03
    -14.919  0.2225E+02  0.1580E+03
    -14.905  0.2221E+02  0.1583E+03
    -14.891  0.2218E+02  0.1586E+03
    -14.877  0.2214E+02  0.1589E+03
    -14.864  0.2210E+02  0.1592E+03
    -14.850  0.2207E+02  0.1595E+03
    -14.836  0.2203E+02  0.1598E+03
    -14.822  0.2200E+02  0.1601E+03
    -14.809  0.2197E+02  0.1604E+03
    -14.795  0.2194E+02  0.1607E+03
    -14.781  0.2192E+02  0.1610E+03
    -14.767  0.2191E+02  0.1613E+03
    -14.753  0.2191E+02  0.1616E+03
    -14.740  0.2192E+02  0.1619E+03
    -14.726  0.2194E+02  0.1622E+03
    -14.712  0.2197E+02  0.1625E+03
    -14.698  0.2202E+02  0.1628E+03
    -14.685  0.2207E+02  0.1631E+03
    -14.671  0.2214E+02  0.1634E+03
    -14.657  0.2222E+02  0.1638E+03
    -14.643  0.2230E+02  0.1641E+03
    -14.630  0.2238E+02  0.1644E+03
    -14.616  0.2245E+02  0.1647E+03
    -14.602  0.2253E+02  0.1650E+03
    -14.588  0.2259E+02  0.1653E+03
    -14.574  0.2264E+02  0.1656E+03
    -14.561  0.2267E+02  0.1659E+03
    -14.547  0.2268E+02  0.1662E+03
    -14.533  0.2267E+02  0.1665E+03
    -14.519  0.2264E+02  0.1669E+03
    -14.506  0.2259E+02  0.1672E+03
    -14.492  0.2252E+02  0.1675E+03
    -14.478  0.2244E+02  0.1678E+03
    -14.464  0.2235E+02  0.1681E+03
    -14.451  0.2225E+02  0.1684E+03
    -14.437  0.2215E+02  0.1687E+03
    -14.423  0.2205E+02  0.1690E+03
    -14.409  0.2197E+02  0.1693E+03
    -14.395  0.2190E+02  0.1696E+03
    -14.382  0.2185E+02  0.1699E+03
    -14.368  0.2183E+02  0.1702E+03
    -14.354  0.2184E+02  0.1705E+03
    -14.340  0.2188E+02  0.1708E+03
    -14.327  0.2195E+02  0.1711E+03
    -14.313  0.2207E+02  0.1714E+03
    -14.299  0.2222E+02  0.1717E+03
    -14.285  0.2241E+02  0.1720E+03
    -14.272  0.2263E+02  0.1724E+03
    -14.258  0.2288E+02  0.1727E+03
    -14.244  0.2316E+02  0.1730E+03
    -14.230  0.2346E+02  0.1733E+03
    -14.216  0.2378E+02  0.1736E+03
    -14.203  0.2411E+02  0.1740E+03
    -14.189  0.2445E+02  0.1743E+03
    -14.175  0.2479E+02  0.1746E+03
    -14.161  0.2512E+02  0.1750E+03
    -14.148  0.2544E+02  0.1753E+03
    -14.134  0.2574E+02  0.1757E+03
    -14.120  0.2602E+02  0.1761E+03
    -14.106  0.2628E+02  0.1764E+03
    -14.092  0.2650E+02  0.1768E+03
    -14.079  0.2668E+02  0.1771E+03
    -14.065  0.2683E+02  0.1775E+03
    -14.051  0.2694E+02  0.1779E+03
    -14.037  0.2701E+02  0.1783E+03
    -14.024  0.2703E+02  0.1786E+03
    -14.010  0.2700E+02  0.1790E+03
    -13.996  0.2693E+02  0.1794E+03
    -13.982  0.2682E+02  0.1797E+03
    -13.969  0.2667E+02  0.1801E+03
    -13.955  0.2648E+02  0.1805E+03
    -13.941  0.2625E+02  0.1808E+03
    -13.927  0.2599E+02  0.1812E+03
    -13.913  0.2570E+02  0.1816E+03
    -13.900  0.2538E+02  0.1819E+03
    -13.886  0.2504E+02  0.1822E+03
    -13.872  0.2469E+02  0.1826E+03
    -13.858  0.2433E+02  0.1829E+03
    -13.845  0.2396E+02  0.1832E+03
    -13.831  0.2359E+02  0.1836E+03
    -13.817  0.2322E+02  0.1839E+03
    -13.803  0.2286E+02  0.1842E+03
    -13.790  0.2251E+02  0.1845E+03
    -13.776  0.2218E+02  0.1848E+03
    -13.762  0.2187E+02  0.1851E+03
    -13.748  0.2159E+02  0.1854E+03
    -13.734  0.2133E+02  0.1857E+03
    -13.721  0.2111E+02  0.1860E+03
    -13.707  0.2092E+02  0.1863E+03
    -13.693  0.2077E+02  0.1866E+03
    -13.679  0.2066E+02  0.1869E+03
    -13.666  0.2059E+02  0.1871E+03
    -13.652  0.2056E+02  0.1874E+03
    -13.638  0.2057E+02  0.1877E+03
    -13.624  0.2062E+02  0.1880E+03
    -13.611  0.2070E+02  0.1883E+03
    -13.597  0.2082E+02  0.1886E+03
    -13.583  0.2096E+02  0.1889E+03
    -13.569  0.2113E+02  0.1892E+03
    -13.555  0.2131E+02  0.1894E+03
    -13.542  0.2151E+02  0.1897E+03
    -13.528  0.2171E+02  0.1900E+03
    -13.514  0.2191E+02  0.1903E+03
    -13.500  0.2210E+02  0.1906E+03
    -13.487  0.2229E+02  0.1910E+03
    -13.473  0.2246E+02  0.1913E+03
    -13.459  0.2262E+02  0.1916E+03
    -13.445  0.2276E+02  0.1919E+03
    -13.431  0.2288E+02  0.1922E+03
    -13.418  0.2298E+02  0.1925E+03
    -13.404  0.2307E+02  0.1928E+03
    -13.390  0.2314E+02  0.1932E+03
    -13.376  0.2321E+02  0.1935E+03
    -13.363  0.2327E+02  0.1938E+03
    -13.349  0.2332E+02  0.1941E+03
    -13.335  0.2337E+02  0.1944E+03
    -13.321  0.2343E+02  0.1948E+03
    -13.308  0.2349E+02  0.1951E+03
    -13.294  0.2356E+02  0.1954E+03
    -13.280  0.2364E+02  0.1957E+03
    -13.266  0.2372E+02  0.1961E+03
    -13.252  0.2382E+02  0.1964E+03
    -13.239  0.2394E+02  0.1967E+03
    -13.225  0.2406E+02  0.1970E+03
    -13.211  0.2419E+02  0.1974E+03
    -13.197  0.2432E+02  0.1977E+03
    -13.184  0.2446E+02  0.1981E+03
    -13.170  0.2461E+02  0.1984E+03
    -13.156  0.2475E+02  0.1987E+03
    -13.142  0.2489E+02  0.1991E+03
    -13.129  0.2502E+02  0.1994E+03
    -13.115  0.2514E+02  0.1998E+03
    -13.101  0.2525E+02  0.2001E+03
    -13.087  0.2535E+02  0.2005E+03
    -13.073  0.2543E+02  0.2008E+03
    -13.060  0.2549E+02  0.2012E+03
    -13.046  0.2554E+02  0.2015E+03
    -13.032  0.2556E+02  0.2019E+03
    -13.018  0.2557E+02  0.2022E+03
    -13.005  0.2556E+02  0.2026E+03
    -12.991  0.2554E+02  0.2029E+03
    -12.977  0.2550E+02  0.2033E+03
    -12.963  0.2546E+02  0.2036E+03
    -12.950  0.2540E+02  0.2040E+03
    -12.936  0.2535E+02  0.2043E+03