 192 192   0   0
  0.2619380E+02  0.2556000E-08  0.1967610E-08  0.1000000E-08  0.5000000E-15
  1.000000000000000E-004
  CAR 
 unknown system                          
      6.35433429    -23.96019819 2000     -0.99464679      1.00000000
    -23.960  0.0000E+00  0.0000E+00
    -23.945  0.0000E+00  0.0000E+00
    -23.930  0.0000E+00  0.0000E+00
    -23.915  0.0000E+00  0.0000E+00
    -23.900  0.0000E+00  0.0000E+00
    -23.884  0.0000E+00  0.0000E+00
    -23.869  0.0000E+00  0.0000E+00
    -23.854  0.0000E+00  0.0000E+00
    -23.839  0.0000E+00  0.0000E+00
    -23.824  0.0000E+00  0.0000E+00
    -23.809  0.0000E+00  0.0000E+00
    -23.793  0.0000E+00  0.0000E+00
    -23.778  0.0000E+00  0.0000E+00
    -23.763  0.0000E+00  0.0000E+00
    -23.748  0.0000E+00  0.0000E+00
    -23.733  0.0000E+00  0.0000E+00
    -23.718  0.0000E+00  0.0000E+00
    -23.702  0.0000E+00  0.0000E+00
    -23.687  0.0000E+00  0.0000E+00
    -23.672  0.0000E+00  0.0000E+00
    -23.657  0.0000E+00  0.0000E+00
    -23.642  0.0000E+00  0.0000E+00
    -23.627  0.0000E+00  0.0000E+00
    -23.611  0.0000E+00  0.0000E+00
    -23.596  0.0000E+00  0.0000E+00
    -23.581  0.0000E+00  0.0000E+00
    -23.566  0.0000E+00  0.0000E+00
    -23.551  0.0000E+00  0.0000E+00
    -23.536  0.0000E+00  0.0000E+00
    -23.520  0.0000E+00  0.0000E+00
    -23.505  0.0000E+00  0.0000E+00
    -23.490  0.0000E+00  0.0000E+00
    -23.475  0.0000E+00  0.0000E+00
    -23.460  0.0000E+00  0.0000E+00
    -23.445  0.0000E+00  0.0000E+00
    -23.429  0.0000E+00  0.0000E+00
    -23.414  0.0000E+00  0.0000E+00
    -23.399  0.0000E+00  0.0000E+00
    -23.384  0.0000E+00  0.0000E+00
    -23.369  0.0000E+00  0.0000E+00
    -23.354  0.0000E+00  0.0000E+00
    -23.338  0.0000E+00  0.0000E+00
    -23.323  0.0000E+00  0.0000E+00
    -23.308  0.0000E+00  0.0000E+00
    -23.293  0.0000E+00  0.0000E+00
    -23.278  0.0000E+00  0.0000E+00
    -23.263  0.0000E+00  0.0000E+00
    -23.247  0.0000E+00  0.0000E+00
    -23.232  0.0000E+00  0.0000E+00
    -23.217  0.0000E+00  0.0000E+00
    -23.202  0.0000E+00  0.0000E+00
    -23.187  0.0000E+00  0.0000E+00
    -23.172  0.0000E+00  0.0000E+00
    -23.156  0.0000E+00  0.0000E+00
    -23.141  0.7321E-14  0.1110E-15
    -23.126  0.0000E+00  0.1110E-15
    -23.111  0.2196E-13  0.4441E-15
    -23.096  0.3661E-13  0.9992E-15
    -23.081  0.8785E-13  0.2331E-14
    -23.065  0.2050E-12  0.5440E-14
    -23.050  0.4832E-12  0.1277E-13
    -23.035  0.1093E-11  0.2935E-13
    -23.020  0.2471E-11  0.6682E-13
    -23.005  0.5515E-11  0.1505E-12
    -22.990  0.1217E-10  0.3351E-12
    -22.974  0.2655E-10  0.7377E-12
    -22.959  0.5724E-10  0.1606E-11
    -22.944  0.1220E-09  0.3456E-11
    -22.929  0.2571E-09  0.7356E-11
    -22.914  0.5357E-09  0.1548E-10
    -22.899  0.1103E-08  0.3221E-10
    -22.883  0.2246E-08  0.6626E-10
    -22.868  0.4520E-08  0.1348E-09
    -22.853  0.8993E-08  0.2712E-09
    -22.838  0.1769E-07  0.5394E-09
    -22.823  0.3439E-07  0.1061E-08
    -22.808  0.6611E-07  0.2064E-08
    -22.793  0.1256E-06  0.3969E-08
    -22.777  0.2360E-06  0.7548E-08
    -22.762  0.4383E-06  0.1419E-07
    -22.747  0.8047E-06  0.2640E-07
    -22.732  0.1460E-05  0.4854E-07
    -22.717  0.2620E-05  0.8828E-07
    -22.702  0.4648E-05  0.1588E-06
    -22.686  0.8149E-05  0.2823E-06
    -22.671  0.1413E-04  0.4966E-06
    -22.656  0.2421E-04  0.8637E-06
    -22.641  0.4101E-04  0.1486E-05
    -22.626  0.6868E-04  0.2527E-05
    -22.611  0.1137E-03  0.4251E-05
    -22.595  0.1861E-03  0.7073E-05
    -22.580  0.3011E-03  0.1164E-04
    -22.565  0.4816E-03  0.1894E-04
    -22.550  0.7615E-03  0.3049E-04
    -22.535  0.1190E-02  0.4854E-04
    -22.520  0.1839E-02  0.7643E-04
    -22.504  0.2810E-02  0.1190E-03
    -22.489  0.4243E-02  0.1834E-03
    -22.474  0.6335E-02  0.2795E-03
    -22.459  0.9350E-02  0.4213E-03
    -22.444  0.1364E-01  0.6282E-03
    -22.429  0.1968E-01  0.9266E-03
    -22.413  0.2806E-01  0.1352E-02
    -22.398  0.3955E-01  0.1952E-02
    -22.383  0.5512E-01  0.2788E-02
    -22.368  0.7593E-01  0.3939E-02
    -22.353  0.1034E+00  0.5507E-02
    -22.338  0.1392E+00  0.7618E-02
    -22.322  0.1853E+00  0.1043E-01
    -22.307  0.2438E+00  0.1412E-01
    -22.292  0.3171E+00  0.1893E-01
    -22.277  0.4077E+00  0.2512E-01
    -22.262  0.5183E+00  0.3298E-01
    -22.247  0.6513E+00  0.4285E-01
    -22.231  0.8091E+00  0.5512E-01
    -22.216  0.9936E+00  0.7019E-01
    -22.201  0.1206E+01  0.8848E-01
    -22.186  0.1448E+01  0.1104E+00
    -22.171  0.1718E+01  0.1365E+00
    -22.156  0.2015E+01  0.1671E+00
    -22.140  0.2337E+01  0.2025E+00
    -22.125  0.2678E+01  0.2431E+00
    -22.110  0.3035E+01  0.2891E+00
    -22.095  0.3401E+01  0.3407E+00
    -22.080  0.3766E+01  0.3978E+00
    -22.065  0.4124E+01  0.4604E+00
    -22.049  0.4464E+01  0.5281E+00
    -22.034  0.4778E+01  0.6005E+00
    -22.019  0.5055E+01  0.6772E+00
    -22.004  0.5289E+01  0.7574E+00
    -21.989  0.5471E+01  0.8403E+00
    -21.974  0.5596E+01  0.9252E+00
    -21.958  0.5661E+01  0.1011E+01
    -21.943  0.5665E+01  0.1097E+01
    -21.928  0.5608E+01  0.1182E+01
    -21.913  0.5495E+01  0.1265E+01
    -21.898  0.5331E+01  0.1346E+01
    -21.883  0.5124E+01  0.1424E+01
    -21.867  0.4884E+01  0.1498E+01
    -21.852  0.4621E+01  0.1568E+01
    -21.837  0.4348E+01  0.1634E+01
    -21.822  0.4076E+01  0.1696E+01
    -21.807  0.3818E+01  0.1754E+01
    -21.792  0.3584E+01  0.1808E+01
    -21.776  0.3385E+01  0.1859E+01
    -21.761  0.3228E+01  0.1908E+01
    -21.746  0.3121E+01  0.1956E+01
    -21.731  0.3067E+01  0.2002E+01
    -21.716  0.3070E+01  0.2049E+01
    -21.701  0.3129E+01  0.2096E+01
    -21.685  0.3242E+01  0.2145E+01
    -21.670  0.3405E+01  0.2197E+01
    -21.655  0.3609E+01  0.2252E+01
    -21.640  0.3849E+01  0.2310E+01
    -21.625  0.4112E+01  0.2372E+01
    -21.610  0.4390E+01  0.2439E+01
    -21.594  0.4669E+01  0.2510E+01
    -21.579  0.4940E+01  0.2585E+01
    -21.564  0.5192E+01  0.2663E+01
    -21.549  0.5414E+01  0.2746E+01
    -21.534  0.5599E+01  0.2830E+01
    -21.519  0.5741E+01  0.2918E+01
    -21.503  0.5837E+01  0.3006E+01
    -21.488  0.5885E+01  0.3095E+01
    -21.473  0.5888E+01  0.3185E+01
    -21.458  0.5851E+01  0.3273E+01
    -21.443  0.5782E+01  0.3361E+01
    -21.428  0.5689E+01  0.3447E+01
    -21.413  0.5584E+01  0.3532E+01
    -21.397  0.5481E+01  0.3615E+01
    -21.382  0.5392E+01  0.3697E+01
    -21.367  0.5330E+01  0.3778E+01
    -21.352  0.5309E+01  0.3858E+01
    -21.337  0.5338E+01  0.3939E+01
    -21.322  0.5428E+01  0.4021E+01
    -21.306  0.5584E+01  0.4106E+01
    -21.291  0.5809E+01  0.4194E+01
    -21.276  0.6105E+01  0.4287E+01
    -21.261  0.6467E+01  0.4385E+01
    -21.246  0.6891E+01  0.4489E+01
    -21.231  0.7368E+01  0.4601E+01
    -21.215  0.7887E+01  0.4721E+01
    -21.200  0.8435E+01  0.4849E+01
    -21.185  0.8999E+01  0.4985E+01
    -21.170  0.9564E+01  0.5130E+01
    -21.155  0.1012E+02  0.5284E+01
    -21.140  0.1065E+02  0.5445E+01
    -21.124  0.1114E+02  0.5614E+01
    -21.109  0.1160E+02  0.5790E+01
    -21.094  0.1200E+02  0.5972E+01
    -21.079  0.1236E+02  0.6159E+01
    -21.064  0.1267E+02  0.6352E+01
    -21.049  0.1294E+02  0.6548E+01
    -21.033  0.1317E+02  0.6748E+01
    -21.018  0.1338E+02  0.6951E+01
    -21.003  0.1357E+02  0.7156E+01
    -20.988  0.1375E+02  0.7365E+01
    -20.973  0.1393E+02  0.7576E+01
    -20.958  0.1413E+02  0.7790E+01
    -20.942  0.1436E+02  0.8008E+01
    -20.927  0.1461E+02  0.8230E+01
    -20.912  0.1490E+02  0.8456E+01
    -20.897  0.1522E+02  0.8687E+01
    -20.882  0.1558E+02  0.8923E+01
    -20.867  0.1597E+02  0.9165E+01
    -20.851  0.1639E+02  0.9414E+01
    -20.836  0.1684E+02  0.9669E+01
    -20.821  0.1730E+02  0.9931E+01
    -20.806  0.1779E+02  0.1020E+02
    -20.791  0.1828E+02  0.1048E+02
    -20.776  0.1877E+02  0.1076E+02
    -20.760  0.1927E+02  0.1106E+02
    -20.745  0.1978E+02  0.1136E+02
    -20.730  0.2028E+02  0.1166E+02
    -20.715  0.2078E+02  0.1198E+02
    -20.700  0.2128E+02  0.1230E+02
    -20.685  0.2178E+02  0.1263E+02
    -20.669  0.2227E+02  0.1297E+02
    -20.654  0.2276E+02  0.1331E+02
    -20.639  0.2325E+02  0.1367E+02
    -20.624  0.2373E+02  0.1403E+02
    -20.609  0.2421E+02  0.1439E+02
    -20.594  0.2466E+02  0.1477E+02
    -20.578  0.2510E+02  0.1515E+02
    -20.563  0.2552E+02  0.1554E+02
    -20.548  0.2592E+02  0.1593E+02
    -20.533  0.2628E+02  0.1633E+02
    -20.518  0.2661E+02  0.1673E+02
    -20.503  0.2691E+02  0.1714E+02
    -20.487  0.2717E+02  0.1755E+02
    -20.472  0.2739E+02  0.1797E+02
    -20.457  0.2758E+02  0.1838E+02
    -20.442  0.2773E+02  0.1880E+02
    -20.427  0.2785E+02  0.1923E+02
    -20.412  0.2793E+02  0.1965E+02
    -20.396  0.2798E+02  0.2007E+02
    -20.381  0.2800E+02  0.2050E+02
    -20.366  0.2800E+02  0.2092E+02
    -20.351  0.2798E+02  0.2135E+02
    -20.336  0.2794E+02  0.2177E+02
    -20.321  0.2788E+02  0.2219E+02
    -20.305  0.2782E+02  0.2262E+02
    -20.290  0.2774E+02  0.2304E+02
    -20.275  0.2766E+02  0.2346E+02
    -20.260  0.2757E+02  0.2387E+02
    -20.245  0.2749E+02  0.2429E+02
    -20.230  0.2741E+02  0.2471E+02
    -20.214  0.2734E+02  0.2512E+02
    -20.199  0.2728E+02  0.2554E+02
    -20.184  0.2723E+02  0.2595E+02
    -20.169  0.2720E+02  0.2636E+02
    -20.154  0.2718E+02  0.2677E+02
    -20.139  0.2717E+02  0.2719E+02
    -20.123  0.2719E+02  0.2760E+02
    -20.108  0.2722E+02  0.2801E+02
    -20.093  0.2726E+02  0.2842E+02
    -20.078  0.2732E+02  0.2884E+02
    -20.063  0.2739E+02  0.2925E+02
    -20.048  0.2747E+02  0.2967E+02
    -20.033  0.2756E+02  0.3009E+02
    -20.017  0.2765E+02  0.3051E+02
    -20.002  0.2774E+02  0.3093E+02
    -19.987  0.2783E+02  0.3135E+02
    -19.972  0.2792E+02  0.3177E+02
    -19.957  0.2801E+02  0.3220E+02
    -19.942  0.2809E+02  0.3262E+02
    -19.926  0.2816E+02  0.3305E+02
    -19.911  0.2823E+02  0.3348E+02
    -19.896  0.2829E+02  0.3391E+02
    -19.881  0.2834E+02  0.3434E+02
    -19.866  0.2838E+02  0.3477E+02
    -19.851  0.2842E+02  0.3520E+02
    -19.835  0.2845E+02  0.3563E+02
    -19.820  0.2848E+02  0.3606E+02
    -19.805  0.2850E+02  0.3650E+02
    -19.790  0.2852E+02  0.3693E+02
    -19.775  0.2854E+02  0.3736E+02
    -19.760  0.2855E+02  0.3779E+02
    -19.744  0.2857E+02  0.3823E+02
    -19.729  0.2860E+02  0.3866E+02
    -19.714  0.2862E+02  0.3909E+02
    -19.699  0.2865E+02  0.3953E+02
    -19.684  0.2868E+02  0.3996E+02
    -19.669  0.2872E+02  0.4040E+02
    -19.653  0.2876E+02  0.4084E+02
    -19.638  0.2880E+02  0.4127E+02
    -19.623  0.2885E+02  0.4171E+02
    -19.608  0.2890E+02  0.4215E+02
    -19.593  0.2895E+02  0.4259E+02
    -19.578  0.2900E+02  0.4303E+02
    -19.562  0.2904E+02  0.4347E+02
    -19.547  0.2908E+02  0.4391E+02
    -19.532  0.2912E+02  0.4435E+02
    -19.517  0.2915E+02  0.4479E+02
    -19.502  0.2917E+02  0.4523E+02
    -19.487  0.2920E+02  0.4568E+02
    -19.471  0.2921E+02  0.4612E+02
    -19.456  0.2923E+02  0.4656E+02
    -19.441  0.2924E+02  0.4701E+02
    -19.426  0.2926E+02  0.4745E+02
    -19.411  0.2928E+02  0.4789E+02
    -19.396  0.2930E+02  0.4834E+02
    -19.380  0.2933E+02  0.4878E+02
    -19.365  0.2937E+02  0.4923E+02
    -19.350  0.2941E+02  0.4968E+02
    -19.335  0.2946E+02  0.5012E+02
    -19.320  0.2952E+02  0.5057E+02
    -19.305  0.2958E+02  0.5102E+02
    -19.289  0.2964E+02  0.5147E+02
    -19.274  0.2970E+02  0.5192E+02
    -19.259  0.2976E+02  0.5237E+02
    -19.244  0.2981E+02  0.5282E+02
    -19.229  0.2986E+02  0.5327E+02
    -19.214  0.2989E+02  0.5373E+02
    -19.198  0.2992E+02  0.5418E+02
    -19.183  0.2993E+02  0.5464E+02
    -19.168  0.2993E+02  0.5509E+02
    -19.153  0.2991E+02  0.5554E+02
    -19.138  0.2988E+02  0.5600E+02
    -19.123  0.2983E+02  0.5645E+02
    -19.107  0.2977E+02  0.5690E+02
    -19.092  0.2971E+02  0.5735E+02
    -19.077  0.2963E+02  0.5780E+02
    -19.062  0.2955E+02  0.5825E+02
    -19.047  0.2948E+02  0.5869E+02
    -19.032  0.2940E+02  0.5914E+02
    -19.016  0.2932E+02  0.5958E+02
    -19.001  0.2926E+02  0.6003E+02
    -18.986  0.2920E+02  0.6047E+02
    -18.971  0.2915E+02  0.6091E+02
    -18.956  0.2911E+02  0.6135E+02
    -18.941  0.2908E+02  0.6180E+02
    -18.925  0.2906E+02  0.6224E+02
    -18.910  0.2905E+02  0.6268E+02
    -18.895  0.2905E+02  0.6312E+02
    -18.880  0.2904E+02  0.6356E+02
    -18.865  0.2904E+02  0.6400E+02
    -18.850  0.2903E+02  0.6444E+02
    -18.834  0.2902E+02  0.6488E+02
    -18.819  0.2901E+02  0.6532E+02
    -18.804  0.2899E+02  0.6576E+02
    -18.789  0.2897E+02  0.6620E+02
    -18.774  0.2894E+02  0.6664E+02
    -18.759  0.2891E+02  0.6708E+02
    -18.743  0.2888E+02  0.6751E+02
    -18.728  0.2885E+02  0.6795E+02
    -18.713  0.2883E+02  0.6839E+02
    -18.698  0.2883E+02  0.6882E+02
    -18.683  0.2884E+02  0.6926E+02
    -18.668  0.2886E+02  0.6970E+02
    -18.653  0.2891E+02  0.7014E+02
    -18.637  0.2897E+02  0.7058E+02
    -18.622  0.2905E+02  0.7102E+02
    -18.607  0.2916E+02  0.7146E+02
    -18.592  0.2927E+02  0.7190E+02
    -18.577  0.2941E+02  0.7235E+02
    -18.562  0.2955E+02  0.7280E+02
    -18.546  0.2969E+02  0.7325E+02
    -18.531  0.2984E+02  0.7370E+02
    -18.516  0.2999E+02  0.7416E+02
    -18.501  0.3012E+02  0.7461E+02
    -18.486  0.3024E+02  0.7507E+02
    -18.471  0.3035E+02  0.7553E+02
    -18.455  0.3044E+02  0.7599E+02
    -18.440  0.3050E+02  0.7646E+02
    -18.425  0.3055E+02  0.7692E+02
    -18.410  0.3056E+02  0.7738E+02
    -18.395  0.3056E+02  0.7785E+02
    -18.380  0.3053E+02  0.7831E+02
    -18.364  0.3048E+02  0.7877E+02
    -18.349  0.3041E+02  0.7923E+02
    -18.334  0.3032E+02  0.7969E+02
    -18.319  0.3022E+02  0.8015E+02
    -18.304  0.3011E+02  0.8061E+02
    -18.289  0.2999E+02  0.8106E+02
    -18.273  0.2987E+02  0.8151E+02
    -18.258  0.2975E+02  0.8197E+02
    -18.243  0.2963E+02  0.8241E+02
    -18.228  0.2952E+02  0.8286E+02
    -18.213  0.2942E+02  0.8331E+02
    -18.198  0.2933E+02  0.8375E+02
    -18.182  0.2926E+02  0.8420E+02
    -18.167  0.2920E+02  0.8464E+02
    -18.152  0.2916E+02  0.8508E+02
    -18.137  0.2914E+02  0.8552E+02
    -18.122  0.2913E+02  0.8597E+02
    -18.107  0.2913E+02  0.8641E+02
    -18.091  0.2915E+02  0.8685E+02
    -18.076  0.2918E+02  0.8729E+02
    -18.061  0.2922E+02  0.8773E+02
    -18.046  0.2926E+02  0.8818E+02
    -18.031  0.2931E+02  0.8862E+02
    -18.016  0.2936E+02  0.8907E+02
    -18.000  0.2941E+02  0.8951E+02
    -17.985  0.2947E+02  0.8996E+02
    -17.970  0.2951E+02  0.9041E+02
    -17.955  0.2956E+02  0.9086E+02
    -17.940  0.2960E+02  0.9131E+02
    -17.925  0.2963E+02  0.9176E+02
    -17.909  0.2966E+02  0.9221E+02
    -17.894  0.2969E+02  0.9266E+02
    -17.879  0.2972E+02  0.9311E+02
    -17.864  0.2974E+02  0.9356E+02
    -17.849  0.2976E+02  0.9401E+02
    -17.834  0.2979E+02  0.9446E+02
    -17.818  0.2981E+02  0.9491E+02
    -17.803  0.2985E+02  0.9536E+02
    -17.788  0.2989E+02  0.9582E+02
    -17.773  0.2993E+02  0.9627E+02
    -17.758  0.2999E+02  0.9673E+02
    -17.743  0.3005E+02  0.9718E+02
    -17.727  0.3012E+02  0.9764E+02
    -17.712  0.3021E+02  0.9810E+02
    -17.697  0.3030E+02  0.9856E+02
    -17.682  0.3040E+02  0.9902E+02
    -17.667  0.3050E+02  0.9948E+02
    -17.652  0.3062E+02  0.9994E+02
    -17.636  0.3073E+02  0.1004E+03
    -17.621  0.3086E+02  0.1009E+03
    -17.606  0.3098E+02  0.1013E+03
    -17.591  0.3110E+02  0.1018E+03
    -17.576  0.3122E+02  0.1023E+03
    -17.561  0.3134E+02  0.1028E+03
    -17.545  0.3144E+02  0.1032E+03
    -17.530  0.3154E+02  0.1037E+03
    -17.515  0.3162E+02  0.1042E+03
    -17.500  0.3168E+02  0.1047E+03
    -17.485  0.3173E+02  0.1052E+03
    -17.470  0.3176E+02  0.1056E+03
    -17.454  0.3176E+02  0.1061E+03
    -17.439  0.3175E+02  0.1066E+03
    -17.424  0.3171E+02  0.1071E+03
    -17.409  0.3165E+02  0.1076E+03
    -17.394  0.3157E+02  0.1080E+03
    -17.379  0.3147E+02  0.1085E+03
    -17.363  0.3135E+02  0.1090E+03
    -17.348  0.3123E+02  0.1095E+03
    -17.333  0.3109E+02  0.1099E+03
    -17.318  0.3096E+02  0.1104E+03
    -17.303  0.3082E+02  0.1109E+03
    -17.288  0.3069E+02  0.1113E+03
    -17.272  0.3057E+02  0.1118E+03
    -17.257  0.3045E+02  0.1123E+03
    -17.242  0.3036E+02  0.1127E+03
    -17.227  0.3028E+02  0.1132E+03
    -17.212  0.3022E+02  0.1137E+03
    -17.197  0.3018E+02  0.1141E+03
    -17.182  0.3016E+02  0.1146E+03
    -17.166  0.3016E+02  0.1150E+03
    -17.151  0.3017E+02  0.1155E+03
    -17.136  0.3019E+02  0.1159E+03
    -17.121  0.3022E+02  0.1164E+03
    -17.106  0.3026E+02  0.1169E+03
    -17.091  0.3030E+02  0.1173E+03
    -17.075  0.3034E+02  0.1178E+03
    -17.060  0.3037E+02  0.1182E+03
    -17.045  0.3039E+02  0.1187E+03
    -17.030  0.3041E+02  0.1192E+03
    -17.015  0.3041E+02  0.1196E+03
    -17.000  0.3040E+02  0.1201E+03
    -16.984  0.3039E+02  0.1205E+03
    -16.969  0.3037E+02  0.1210E+03
    -16.954  0.3035E+02  0.1215E+03
    -16.939  0.3032E+02  0.1219E+03
    -16.924  0.3031E+02  0.1224E+03
    -16.909  0.3030E+02  0.1228E+03
    -16.893  0.3032E+02  0.1233E+03
    -16.878  0.3035E+02  0.1238E+03
    -16.863  0.3041E+02  0.1242E+03
    -16.848  0.3050E+02  0.1247E+03
    -16.833  0.3062E+02  0.1252E+03
    -16.818  0.3076E+02  0.1256E+03
    -16.802  0.3094E+02  0.1261E+03
    -16.787  0.3115E+02  0.1266E+03
    -16.772  0.3137E+02  0.1270E+03
    -16.757  0.3162E+02  0.1275E+03
    -16.742  0.3187E+02  0.1280E+03
    -16.727  0.3213E+02  0.1285E+03
    -16.711  0.3239E+02  0.1290E+03
    -16.696  0.3263E+02  0.1295E+03
    -16.681  0.3285E+02  0.1300E+03
    -16.666  0.3305E+02  0.1305E+03
    -16.651  0.3321E+02  0.1310E+03
    -16.636  0.3334E+02  0.1315E+03
    -16.620  0.3342E+02  0.1320E+03
    -16.605  0.3346E+02  0.1325E+03
    -16.590  0.3346E+02  0.1330E+03
    -16.575  0.3342E+02  0.1335E+03
    -16.560  0.3333E+02  0.1340E+03
    -16.545  0.3321E+02  0.1345E+03
    -16.529  0.3307E+02  0.1350E+03
    -16.514  0.3290E+02  0.1355E+03
    -16.499  0.3272E+02  0.1360E+03
    -16.484  0.3253E+02  0.1365E+03
    -16.469  0.3234E+02  0.1370E+03
    -16.454  0.3217E+02  0.1375E+03
    -16.438  0.3201E+02  0.1380E+03
    -16.423  0.3188E+02  0.1385E+03
    -16.408  0.3178E+02  0.1389E+03
    -16.393  0.3171E+02  0.1394E+03
    -16.378  0.3169E+02  0.1399E+03
    -16.363  0.3169E+02  0.1404E+03
    -16.347  0.3174E+02  0.1409E+03
    -16.332  0.3183E+02  0.1413E+03
    -16.317  0.3195E+02  0.1418E+03
    -16.302  0.3210E+02  0.1423E+03
    -16.287  0.3227E+02  0.1428E+03
    -16.272  0.3246E+02  0.1433E+03
    -16.256  0.3267E+02  0.1438E+03
    -16.241  0.3289E+02  0.1443E+03
    -16.226  0.3310E+02  0.1448E+03
    -16.211  0.3332E+02  0.1453E+03
    -16.196  0.3353E+02  0.1458E+03
    -16.181  0.3372E+02  0.1463E+03
    -16.165  0.3391E+02  0.1468E+03
    -16.150  0.3408E+02  0.1473E+03
    -16.135  0.3423E+02  0.1479E+03
    -16.120  0.3436E+02  0.1484E+03
    -16.105  0.3448E+02  0.1489E+03
    -16.090  0.3458E+02  0.1494E+03
    -16.074  0.3466E+02  0.1500E+03
    -16.059  0.3473E+02  0.1505E+03
    -16.044  0.3478E+02  0.1510E+03
    -16.029  0.3482E+02  0.1515E+03
    -16.014  0.3483E+02  0.1521E+03
    -15.999  0.3483E+02  0.1526E+03
    -15.983  0.3481E+02  0.1531E+03
    -15.968  0.3477E+02  0.1537E+03
    -15.953  0.3470E+02  0.1542E+03
    -15.938  0.3461E+02  0.1547E+03
    -15.923  0.3449E+02  0.1552E+03
    -15.908  0.3434E+02  0.1557E+03
    -15.892  0.3416E+02  0.1563E+03
    -15.877  0.3396E+02  0.1568E+03
    -15.862  0.3374E+02  0.1573E+03
    -15.847  0.3349E+02  0.1578E+03
    -15.832  0.3322E+02  0.1583E+03
    -15.817  0.3294E+02  0.1588E+03
    -15.802  0.3266E+02  0.1593E+03
    -15.786  0.3237E+02  0.1598E+03
    -15.771  0.3208E+02  0.1603E+03
    -15.756  0.3180E+02  0.1608E+03
    -15.741  0.3154E+02  0.1612E+03
    -15.726  0.3131E+02  0.1617E+03
    -15.711  0.3109E+02  0.1622E+03
    -15.695  0.3091E+02  0.1627E+03
    -15.680  0.3076E+02  0.1631E+03
    -15.665  0.3064E+02  0.1636E+03
    -15.650  0.3055E+02  0.1640E+03
    -15.635  0.3050E+02  0.1645E+03
    -15.620  0.3047E+02  0.1650E+03
    -15.604  0.3047E+02  0.1654E+03
    -15.589  0.3049E+02  0.1659E+03
    -15.574  0.3052E+02  0.1664E+03
    -15.559  0.3056E+02  0.1668E+03
    -15.544  0.3059E+02  0.1673E+03
    -15.529  0.3062E+02  0.1678E+03
    -15.513  0.3063E+02  0.1682E+03
    -15.498  0.3063E+02  0.1687E+03
    -15.483  0.3059E+02  0.1691E+03
    -15.468  0.3053E+02  0.1696E+03
    -15.453  0.3044E+02  0.1701E+03
    -15.438  0.3031E+02  0.1705E+03
    -15.422  0.3016E+02  0.1710E+03
    -15.407  0.2997E+02  0.1714E+03
    -15.392  0.2977E+02  0.1719E+03
    -15.377  0.2955E+02  0.1723E+03
    -15.362  0.2931E+02  0.1728E+03
    -15.347  0.2907E+02  0.1732E+03
    -15.331  0.2884E+02  0.1737E+03
    -15.316  0.2860E+02  0.1741E+03
    -15.301  0.2838E+02  0.1745E+03
    -15.286  0.2817E+02  0.1750E+03
    -15.271  0.2797E+02  0.1754E+03
    -15.256  0.2779E+02  0.1758E+03
    -15.240  0.2763E+02  0.1762E+03
    -15.225  0.2748E+02  0.1766E+03
    -15.210  0.2733E+02  0.1770E+03
    -15.195  0.2720E+02  0.1775E+03
    -15.180  0.2706E+02  0.1779E+03
    -15.165  0.2692E+02  0.1783E+03
    -15.149  0.2677E+02  0.1787E+03
    -15.134  0.2661E+02  0.1791E+03
    -15.119  0.2644E+02  0.1795E+03
    -15.104  0.2624E+02  0.1799E+03
    -15.089  0.2603E+02  0.1803E+03
    -15.074  0.2579E+02  0.1807E+03
    -15.058  0.2554E+02  0.1811E+03
    -15.043  0.2526E+02  0.1814E+03
    -15.028  0.2497E+02  0.1818E+03
    -15.013  0.2467E+02  0.1822E+03
    -14.998  0.2436E+02  0.1826E+03
    -14.983  0.2404E+02  0.1829E+03
    -14.967  0.2373E+02  0.1833E+03
    -14.952  0.2343E+02  0.1836E+03
    -14.937  0.2314E+02  0.1840E+03
    -14.922  0.2287E+02  0.1843E+03
    -14.907  0.2263E+02  0.1847E+03
    -14.892  0.2242E+02  0.1850E+03
    -14.876  0.2225E+02  0.1854E+03
    -14.861  0.2211E+02  0.1857E+03
    -14.846  0.2201E+02  0.1860E+03
    -14.831  0.2195E+02  0.1864E+03
    -14.816  0.2194E+02  0.1867E+03
    -14.801  0.2196E+02  0.1870E+03
    -14.785  0.2203E+02  0.1874E+03
    -14.770  0.2212E+02  0.1877E+03
    -14.755  0.2225E+02  0.1880E+03
    -14.740  0.2241E+02  0.1884E+03
    -14.725  0.2260E+02  0.1887E+03
    -14.710  0.2280E+02  0.1891E+03
    -14.694  0.2302E+02  0.1894E+03
    -14.679  0.2326E+02  0.1898E+03
    -14.664  0.2350E+02  0.1901E+03
    -14.649  0.2376E+02  0.1905E+03
    -14.634  0.2402E+02  0.1909E+03
    -14.619  0.2428E+02  0.1912E+03
    -14.603  0.2455E+02  0.1916E+03
    -14.588  0.2482E+02  0.1920E+03
    -14.573  0.2509E+02  0.1923E+03
    -14.558  0.2537E+02  0.1927E+03
    -14.543  0.2565E+02  0.1931E+03
    -14.528  0.2592E+02  0.1935E+03
    -14.512  0.2620E+02  0.1939E+03
    -14.497  0.2649E+02  0.1943E+03
    -14.482  0.2677E+02  0.1947E+03
    -14.467  0.2705E+02  0.1951E+03
    -14.452  0.2734E+02  0.1955E+03
    -14.437  0.2762E+02  0.1960E+03
    -14.422  0.2790E+02  0.1964E+03
    -14.406  0.2819E+02  0.1968E+03
    -14.391  0.2846E+02  0.1972E+03
    -14.376  0.2874E+02  0.1977E+03
    -14.361  0.2901E+02  0.1981E+03
    -14.346  0.2927E+02  0.1986E+03
    -14.331  0.2953E+02  0.1990E+03
    -14.315  0.2979E+02  0.1995E+03
    -14.300  0.3003E+02  0.1999E+03
    -14.285  0.3027E+02  0.2004E+03
    -14.270  0.3051E+02  0.2008E+03
    -14.255  0.3074E+02  0.2013E+03
    -14.240  0.3097E+02  0.2018E+03
    -14.224  0.3120E+02  0.2023E+03
    -14.209  0.3143E+02  0.2027E+03
    -14.194  0.3166E+02  0.2032E+03
    -14.179  0.3189E+02  0.2037E+03
    -14.164  0.3213E+02  0.2042E+03
    -14.149  0.3236E+02  0.2047E+03
    -14.133  0.3260E+02  0.2052E+03
    -14.118  0.3283E+02  0.2057E+03
    -14.103  0.3305E+02  0.2062E+03
    -14.088  0.3326E+02  0.2067E+03
    -14.073  0.3346E+02  0.2072E+03
    -14.058  0.3364E+02  0.2077E+03
    -14.042  0.3379E+02  0.2082E+03
    -14.027  0.3392E+02  0.2087E+03
    -14.012  0.3401E+02  0.2092E+03
    -13.997  0.3408E+02  0.2097E+03
    -13.982  0.3411E+02  0.2103E+03
    -13.967  0.3411E+02  0.2108E+03
    -13.951  0.3408E+02  0.2113E+03
    -13.936  0.3402E+02  0.2118E+03
    -13.921  0.3394E+02  0.2123E+03
    -13.906  0.3385E+02  0.2128E+03
    -13.891  0.3375E+02  0.2134E+03
    -13.876  0.3365E+02  0.2139E+03
    -13.860  0.3355E+02  0.2144E+03
    -13.845  0.3346E+02  0.2149E+03
    -13.830  0.3339E+02  0.2154E+03
    -13.815  0.3334E+02  0.2159E+03
    -13.800  0.3332E+02  0.2164E+03
    -13.785  0.3333E+02  0.2169E+03
    -13.769  0.3337E+02  0.2174E+03
    -13.754  0.3344E+02  0.2179E+03
    -13.739  0.3355E+02  0.2184E+03
    -13.724  0.3369E+02  0.2189E+03
    -13.709  0.3385E+02  0.2194E+03
    -13.694  0.3404E+02  0.2200E+03
    -13.678  0.3426E+02  0.2205E+03
    -13.663  0.3449E+02  0.2210E+03
    -13.648  0.3473E+02  0.2215E+03
    -13.633  0.3498E+02  0.2221E+03
    -13.618  0.3523E+02  0.2226E+03
    -13.603  0.3547E+02  0.2231E+03
    -13.587  0.3569E+02  0.2237E+03
    -13.572  0.3590E+02  0.2242E+03
    -13.557  0.3608E+02  0.2248E+03
    -13.542  0.3623E+02  0.2253E+03
    -13.527  0.3634E+02  0.2259E+03
    -13.512  0.3641E+02  0.2264E+03
    -13.496  0.3644E+02  0.2270E+03
    -13.481  0.3642E+02  0.2275E+03
    -13.466  0.3636E+02  0.2281E+03
    -13.451  0.3625E+02  0.2286E+03
    -13.436  0.3610E+02  0.2292E+03
    -13.421  0.3591E+02  0.2297E+03
    -13.405  0.3567E+02  0.2303E+03
    -13.390  0.3541E+02  0.2308E+03
    -13.375  0.3512E+02  0.2313E+03
    -13.360  0.3481E+02  0.2319E+03
    -13.345  0.3448E+02  0.2324E+03
    -13.330  0.3415E+02  0.2329E+03
    -13.314  0.3381E+02  0.2334E+03
    -13.299  0.3348E+02  0.2339E+03
    -13.284  0.3316E+02  0.2344E+03
    -13.269  0.3286E+02  0.2349E+03
    -13.254  0.3258E+02  0.2354E+03
    -13.239  0.3233E+02  0.2359E+03
    -13.223  0.3210E+02  0.2364E+03
    -13.208  0.3191E+02  0.2369E+03
    -13.193  0.3176E+02  0.2374E+03
    -13.178  0.3163E+02  0.2378E+03
    -13.163  0.3154E+02  0.2383E+03
    -13.148  0.3147E+02  0.2388E+03
    -13.132  0.3143E+02  0.2393E+03
    -13.117  0.3142E+02  0.2397E+03
    -13.102  0.3141E+02  0.2402E+03
    -13.087  0.3143E+02  0.2407E+03
    -13.072  0.3144E+02  0.2412E+03
    -13.057  0.3146E+02  0.2417E+03
    -13.042  0.3147E+02  0.2421E+03
    -13.026  0.3147E+02  0.2426E+03
    -13.011  0.3145E+02  0.2431E+03
    -12.996  0.3141E+02  0.2436E+03
    -12.981  0.3135E+02  0.2440E+03
    -12.966  0.3126E+02  0.2445E+03
    -12.951  0.3114E+02  0.2450E+03
    -12.935  0.3099E+02  0.2454E+03
    -12.920  0.3082E+02  0.2459E+03
    -12.905  0.3062E+02  0.2464E+03
    -12.890  0.3039E+02  0.2468E+03
    -12.875  0.3015E+02  0.2473E+03
    -12.860  0.2990E+02  0.2478E+03
    -12.844  0.2963E+02  0.2482E+03
    -12.829  0.2936E+02  0.2486E+03
    -12.814  0.2909E+02  0.2491E+03
    -12.799  0.2883E+02  0.2495E+03
    -12.784  0.2858E+02  0.2500E+03
    -12.769  0.2834E+02  0.2504E+03
    -12.753  0.2813E+02  0.2508E+03
    -12.738  0.2794E+02  0.2512E+03
    -12.723  0.2778E+02  0.2517E+03
    -12.708  0.2764E+02  0.2521E+03
    -12.693  0.2754E+02  0.2525E+03
    -12.678  0.2746E+02  0.2529E+03
    -12.662  0.2741E+02  0.2533E+03
    -12.647  0.2738E+02  0.2537E+03
    -12.632  0.2738E+02  0.2542E+03
    -12.617  0.2739E+02  0.2546E+03
    -12.602  0.2742E+02  0.2550E+03
    -12.587  0.2746E+02  0.2554E+03
    -12.571  0.2751E+02  0.2558E+03
    -12.556  0.2757E+02  0.2562E+03
    -12.541  0.2763E+02  0.2567E+03
    -12.526  0.2769E+02  0.2571E+03
    -12.511  0.2776E+02  0.2575E+03
    -12.496  0.2783E+02  0.2579E+03
    -12.480  0.2790E+02  0.2583E+03
    -12.465  0.2799E+02  0.2588E+03
    -12.450  0.2808E+02  0.2592E+03
    -12.435  0.2819E+02  0.2596E+03
    -12.420  0.2832E+02  0.2601E+03
    -12.405  0.2847E+02  0.2605E+03
    -12.389  0.2864E+02  0.2609E+03
    -12.374  0.2884E+02  0.2614E+03
    -12.359  0.2907E+02  0.2618E+03
    -12.344  0.2932E+02  0.2622E+03
    -12.329  0.2959E+02  0.2627E+03
    -12.314  0.2988E+02  0.2631E+03
    -12.298  0.3020E+02  0.2636E+03
    -12.283  0.3052E+02  0.2641E+03
    -12.268  0.3085E+02  0.2645E+03
    -12.253  0.3118E+02  0.2650E+03
    -12.238  0.3150E+02  0.2655E+03
    -12.223  0.3181E+02  0.2660E+03
    -12.207  0.3210E+02  0.2665E+03
    -12.192  0.3237E+02  0.2669E+03
    -12.177  0.3262E+02  0.2674E+03
    -12.162  0.3283E+02  0.2679E+03
    -12.147  0.3302E+02  0.2684E+03
    -12.132  0.3317E+02  0.2689E+03
    -12.116  0.3329E+02  0.2694E+03
    -12.101  0.3337E+02  0.2700E+03
    -12.086  0.3343E+02  0.2705E+03
    -12.071  0.3345E+02  0.2710E+03
    -12.056  0.3345E+02  0.2715E+03
    -12.041  0.3341E+02  0.2720E+03
    -12.025  0.3336E+02  0.2725E+03
    -12.010  0.3328E+02  0.2730E+03
    -11.995  0.3317E+02  0.2735E+03
    -11.980  0.3305E+02  0.2740E+03
    -11.965  0.3291E+02  0.2745E+03
    -11.950  0.3276E+02  0.2750E+03
    -11.934  0.3260E+02  0.2755E+03
    -11.919  0.3242E+02  0.2760E+03
    -11.904  0.3224E+02  0.2765E+03
    -11.889  0.3206E+02  0.2770E+03
    -11.874  0.3188E+02  0.2774E+03
    -11.859  0.3170E+02  0.2779E+03
    -11.843  0.3153E+02  0.2784E+03
    -11.828  0.3137E+02  0.2789E+03
    -11.813  0.3123E+02  0.2793E+03
    -11.798  0.3110E+02  0.2798E+03
    -11.783  0.3099E+02  0.2803E+03
    -11.768  0.3091E+02  0.2808E+03
    -11.752  0.3085E+02  0.2812E+03
    -11.737  0.3083E+02  0.2817E+03
    -11.722  0.3083E+02  0.2822E+03
    -11.707  0.3086E+02  0.2826E+03
    -11.692  0.3092E+02  0.2831E+03
    -11.677  0.3101E+02  0.2836E+03
    -11.662  0.3112E+02  0.2840E+03
    -11.646  0.3126E+02  0.2845E+03
    -11.631  0.3142E+02  0.2850E+03
    -11.616  0.3161E+02  0.2855E+03
    -11.601  0.3180E+02  0.2859E+03
    -11.586  0.3201E+02  0.2864E+03
    -11.571  0.3223E+02  0.2869E+03
    -11.555  0.3244E+02  0.2874E+03
    -11.540  0.3266E+02  0.2879E+03
    -11.525  0.3287E+02  0.2884E+03
    -11.510  0.3307E+02  0.2889E+03
    -11.495  0.3326E+02  0.2894E+03
    -11.480  0.3345E+02  0.2899E+03
    -11.464  0.3362E+02  0.2904E+03
    -11.449  0.3378E+02  0.2909E+03