 248 248   0   0
  0.5371064E+02  0.2995360E-08  0.2223479E-08  0.2000000E-08  0.5000000E-15
  1.000000000000000E-004
  CAR 
 unknown system                          
      3.79790919    -24.15959440 2000     -3.48153879      1.00000000
    -24.160  0.0000E+00  0.0000E+00
    -24.146  0.0000E+00  0.0000E+00
    -24.132  0.0000E+00  0.0000E+00
    -24.118  0.0000E+00  0.0000E+00
    -24.104  0.0000E+00  0.0000E+00
    -24.090  0.0000E+00  0.0000E+00
    -24.076  0.0000E+00  0.0000E+00
    -24.062  0.0000E+00  0.0000E+00
    -24.048  0.0000E+00  0.0000E+00
    -24.034  0.0000E+00  0.0000E+00
    -24.020  0.0000E+00  0.0000E+00
    -24.006  0.0000E+00  0.0000E+00
    -23.992  0.0000E+00  0.0000E+00
    -23.978  0.0000E+00  0.0000E+00
    -23.964  0.0000E+00  0.0000E+00
    -23.950  0.0000E+00  0.0000E+00
    -23.936  0.0000E+00  0.0000E+00
    -23.922  0.0000E+00  0.0000E+00
    -23.908  0.0000E+00  0.0000E+00
    -23.894  0.0000E+00  0.0000E+00
    -23.880  0.0000E+00  0.0000E+00
    -23.866  0.0000E+00  0.0000E+00
    -23.852  0.0000E+00  0.0000E+00
    -23.838  0.0000E+00  0.0000E+00
    -23.824  0.0000E+00  0.0000E+00
    -23.810  0.0000E+00  0.0000E+00
    -23.796  0.0000E+00  0.0000E+00
    -23.782  0.0000E+00  0.0000E+00
    -23.768  0.0000E+00  0.0000E+00
    -23.754  0.0000E+00  0.0000E+00
    -23.740  0.0000E+00  0.0000E+00
    -23.726  0.0000E+00  0.0000E+00
    -23.712  0.0000E+00  0.0000E+00
    -23.698  0.0000E+00  0.0000E+00
    -23.684  0.0000E+00  0.0000E+00
    -23.670  0.0000E+00  0.0000E+00
    -23.656  0.0000E+00  0.0000E+00
    -23.642  0.0000E+00  0.0000E+00
    -23.628  0.0000E+00  0.0000E+00
    -23.614  0.0000E+00  0.0000E+00
    -23.600  0.0000E+00  0.0000E+00
    -23.586  0.0000E+00  0.0000E+00
    -23.572  0.0000E+00  0.0000E+00
    -23.558  0.0000E+00  0.0000E+00
    -23.544  0.0000E+00  0.0000E+00
    -23.530  0.0000E+00  0.0000E+00
    -23.516  0.0000E+00  0.0000E+00
    -23.502  0.0000E+00  0.0000E+00
    -23.488  0.0000E+00  0.0000E+00
    -23.474  0.0000E+00  0.0000E+00
    -23.460  0.0000E+00  0.0000E+00
    -23.446  0.0000E+00  0.0000E+00
    -23.432  0.0000E+00  0.0000E+00
    -23.418  0.0000E+00  0.0000E+00
    -23.404  0.0000E+00  0.0000E+00
    -23.390  0.0000E+00  0.0000E+00
    -23.376  0.0000E+00  0.0000E+00
    -23.362  0.0000E+00  0.0000E+00
    -23.348  0.0000E+00  0.0000E+00
    -23.334  0.2646E-14  0.3701E-16
    -23.320  0.7938E-14  0.1480E-15
    -23.306  0.1147E-13  0.3084E-15
    -23.292  0.3087E-13  0.7401E-15
    -23.278  0.6439E-13  0.1641E-14
    -23.265  0.1455E-12  0.3676E-14
    -23.251  0.3158E-12  0.8092E-14
    -23.237  0.6818E-12  0.1763E-13
    -23.223  0.1447E-11  0.3787E-13
    -23.209  0.3060E-11  0.8066E-13
    -23.195  0.6397E-11  0.1701E-12
    -23.181  0.1325E-10  0.3555E-12
    -23.167  0.2718E-10  0.7357E-12
    -23.153  0.5522E-10  0.1508E-11
    -23.139  0.1111E-09  0.3061E-11
    -23.125  0.2213E-09  0.6156E-11
    -23.111  0.4365E-09  0.1226E-10
    -23.097  0.8528E-09  0.2419E-10
    -23.083  0.1650E-08  0.4727E-10
    -23.069  0.3162E-08  0.9149E-10
    -23.055  0.6000E-08  0.1754E-09
    -23.041  0.1128E-07  0.3331E-09
    -23.027  0.2099E-07  0.6266E-09
    -23.013  0.3868E-07  0.1168E-08
    -22.999  0.7061E-07  0.2155E-08
    -22.985  0.1276E-06  0.3940E-08
    -22.971  0.2285E-06  0.7136E-08
    -22.957  0.4052E-06  0.1280E-07
    -22.943  0.7115E-06  0.2275E-07
    -22.929  0.1237E-05  0.4006E-07
    -22.915  0.2131E-05  0.6987E-07
    -22.901  0.3636E-05  0.1207E-06
    -22.887  0.6142E-05  0.2066E-06
    -22.873  0.1028E-04  0.3503E-06
    -22.859  0.1703E-04  0.5885E-06
    -22.845  0.2795E-04  0.9794E-06
    -22.831  0.4543E-04  0.1615E-05
    -22.817  0.7315E-04  0.2638E-05
    -22.803  0.1166E-03  0.4269E-05
    -22.789  0.1842E-03  0.6846E-05
    -22.775  0.2882E-03  0.1088E-04
    -22.761  0.4465E-03  0.1712E-04
    -22.747  0.6853E-03  0.2671E-04
    -22.733  0.1042E-02  0.4128E-04
    -22.719  0.1569E-02  0.6321E-04
    -22.705  0.2340E-02  0.9593E-04
    -22.691  0.3456E-02  0.1443E-03
    -22.677  0.5059E-02  0.2150E-03
    -22.663  0.7334E-02  0.3176E-03
    -22.649  0.1053E-01  0.4649E-03
    -22.635  0.1499E-01  0.6745E-03
    -22.621  0.2112E-01  0.9699E-03
    -22.607  0.2950E-01  0.1382E-02
    -22.593  0.4081E-01  0.1953E-02
    -22.579  0.5594E-01  0.2736E-02
    -22.565  0.7598E-01  0.3798E-02
    -22.551  0.1023E+00  0.5228E-02
    -22.537  0.1364E+00  0.7136E-02
    -22.523  0.1802E+00  0.9656E-02
    -22.509  0.2361E+00  0.1296E-01
    -22.495  0.3064E+00  0.1724E-01
    -22.481  0.3943E+00  0.2276E-01
    -22.467  0.5028E+00  0.2979E-01
    -22.453  0.6357E+00  0.3868E-01
    -22.439  0.7968E+00  0.4982E-01
    -22.425  0.9903E+00  0.6367E-01
    -22.411  0.1220E+01  0.8074E-01
    -22.397  0.1492E+01  0.1016E+00
    -22.383  0.1808E+01  0.1269E+00
    -22.369  0.2174E+01  0.1573E+00
    -22.355  0.2594E+01  0.1936E+00
    -22.341  0.3070E+01  0.2365E+00
    -22.327  0.3607E+01  0.2870E+00
    -22.313  0.4206E+01  0.3458E+00
    -22.299  0.4868E+01  0.4139E+00
    -22.286  0.5596E+01  0.4921E+00
    -22.272  0.6388E+01  0.5815E+00
    -22.258  0.7244E+01  0.6828E+00
    -22.244  0.8161E+01  0.7969E+00
    -22.230  0.9137E+01  0.9247E+00
    -22.216  0.1017E+02  0.1067E+01
    -22.202  0.1125E+02  0.1224E+01
    -22.188  0.1238E+02  0.1397E+01
    -22.174  0.1354E+02  0.1587E+01
    -22.160  0.1474E+02  0.1793E+01
    -22.146  0.1596E+02  0.2016E+01
    -22.132  0.1721E+02  0.2257E+01
    -22.118  0.1846E+02  0.2515E+01
    -22.104  0.1971E+02  0.2791E+01
    -22.090  0.2096E+02  0.3084E+01
    -22.076  0.2219E+02  0.3394E+01
    -22.062  0.2339E+02  0.3721E+01
    -22.048  0.2456E+02  0.4065E+01
    -22.034  0.2569E+02  0.4424E+01
    -22.020  0.2676E+02  0.4798E+01
    -22.006  0.2778E+02  0.5187E+01
    -21.992  0.2872E+02  0.5589E+01
    -21.978  0.2959E+02  0.6002E+01
    -21.964  0.3038E+02  0.6427E+01
    -21.950  0.3109E+02  0.6862E+01
    -21.936  0.3171E+02  0.7306E+01
    -21.922  0.3224E+02  0.7756E+01
    -21.908  0.3268E+02  0.8214E+01
    -21.894  0.3304E+02  0.8676E+01
    -21.880  0.3332E+02  0.9142E+01
    -21.866  0.3353E+02  0.9610E+01
    -21.852  0.3366E+02  0.1008E+02
    -21.838  0.3375E+02  0.1055E+02
    -21.824  0.3378E+02  0.1103E+02
    -21.810  0.3377E+02  0.1150E+02
    -21.796  0.3373E+02  0.1197E+02
    -21.782  0.3366E+02  0.1244E+02
    -21.768  0.3359E+02  0.1291E+02
    -21.754  0.3350E+02  0.1338E+02
    -21.740  0.3341E+02  0.1385E+02
    -21.726  0.3332E+02  0.1431E+02
    -21.712  0.3325E+02  0.1478E+02
    -21.698  0.3318E+02  0.1524E+02
    -21.684  0.3312E+02  0.1570E+02
    -21.670  0.3307E+02  0.1617E+02
    -21.656  0.3304E+02  0.1663E+02
    -21.642  0.3302E+02  0.1709E+02
    -21.628  0.3301E+02  0.1755E+02
    -21.614  0.3301E+02  0.1801E+02
    -21.600  0.3303E+02  0.1848E+02
    -21.586  0.3306E+02  0.1894E+02
    -21.572  0.3311E+02  0.1940E+02
    -21.558  0.3317E+02  0.1987E+02
    -21.544  0.3325E+02  0.2033E+02
    -21.530  0.3335E+02  0.2080E+02
    -21.516  0.3347E+02  0.2126E+02
    -21.502  0.3360E+02  0.2173E+02
    -21.488  0.3377E+02  0.2221E+02
    -21.474  0.3395E+02  0.2268E+02
    -21.460  0.3416E+02  0.2316E+02
    -21.446  0.3439E+02  0.2364E+02
    -21.432  0.3464E+02  0.2412E+02
    -21.418  0.3490E+02  0.2461E+02
    -21.404  0.3519E+02  0.2510E+02
    -21.390  0.3548E+02  0.2560E+02
    -21.376  0.3578E+02  0.2610E+02
    -21.362  0.3608E+02  0.2661E+02
    -21.348  0.3638E+02  0.2711E+02
    -21.334  0.3666E+02  0.2763E+02
    -21.320  0.3693E+02  0.2814E+02
    -21.307  0.3718E+02  0.2866E+02
    -21.293  0.3741E+02  0.2919E+02
    -21.279  0.3761E+02  0.2971E+02
    -21.265  0.3778E+02  0.3024E+02
    -21.251  0.3792E+02  0.3077E+02
    -21.237  0.3804E+02  0.3130E+02
    -21.223  0.3812E+02  0.3184E+02
    -21.209  0.3819E+02  0.3237E+02
    -21.195  0.3823E+02  0.3291E+02
    -21.181  0.3825E+02  0.3344E+02
    -21.167  0.3827E+02  0.3398E+02
    -21.153  0.3827E+02  0.3451E+02
    -21.139  0.3828E+02  0.3505E+02
    -21.125  0.3828E+02  0.3558E+02
    -21.111  0.3829E+02  0.3612E+02
    -21.097  0.3831E+02  0.3665E+02
    -21.083  0.3834E+02  0.3719E+02
    -21.069  0.3837E+02  0.3773E+02
    -21.055  0.3841E+02  0.3826E+02
    -21.041  0.3846E+02  0.3880E+02
    -21.027  0.3852E+02  0.3934E+02
    -21.013  0.3858E+02  0.3988E+02
    -20.999  0.3864E+02  0.4042E+02
    -20.985  0.3869E+02  0.4096E+02
    -20.971  0.3874E+02  0.4150E+02
    -20.957  0.3878E+02  0.4205E+02
    -20.943  0.3881E+02  0.4259E+02
    -20.929  0.3882E+02  0.4313E+02
    -20.915  0.3882E+02  0.4367E+02
    -20.901  0.3880E+02  0.4422E+02
    -20.887  0.3877E+02  0.4476E+02
    -20.873  0.3872E+02  0.4530E+02
    -20.859  0.3866E+02  0.4584E+02
    -20.845  0.3859E+02  0.4638E+02
    -20.831  0.3851E+02  0.4692E+02
    -20.817  0.3842E+02  0.4746E+02
    -20.803  0.3833E+02  0.4799E+02
    -20.789  0.3825E+02  0.4853E+02
    -20.775  0.3816E+02  0.4906E+02
    -20.761  0.3807E+02  0.4959E+02
    -20.747  0.3800E+02  0.5013E+02
    -20.733  0.3793E+02  0.5066E+02
    -20.719  0.3787E+02  0.5119E+02
    -20.705  0.3781E+02  0.5171E+02
    -20.691  0.3777E+02  0.5224E+02
    -20.677  0.3774E+02  0.5277E+02
    -20.663  0.3771E+02  0.5330E+02
    -20.649  0.3770E+02  0.5383E+02
    -20.635  0.3769E+02  0.5435E+02
    -20.621  0.3770E+02  0.5488E+02
    -20.607  0.3771E+02  0.5541E+02
    -20.593  0.3774E+02  0.5593E+02
    -20.579  0.3778E+02  0.5646E+02
    -20.565  0.3783E+02  0.5699E+02
    -20.551  0.3789E+02  0.5752E+02
    -20.537  0.3797E+02  0.5805E+02
    -20.523  0.3807E+02  0.5859E+02
    -20.509  0.3818E+02  0.5912E+02
    -20.495  0.3832E+02  0.5966E+02
    -20.481  0.3846E+02  0.6019E+02
    -20.467  0.3863E+02  0.6073E+02
    -20.453  0.3882E+02  0.6128E+02
    -20.439  0.3901E+02  0.6182E+02
    -20.425  0.3923E+02  0.6237E+02
    -20.411  0.3945E+02  0.6292E+02
    -20.397  0.3968E+02  0.6348E+02
    -20.383  0.3991E+02  0.6404E+02
    -20.369  0.4014E+02  0.6460E+02
    -20.355  0.4037E+02  0.6516E+02
    -20.341  0.4059E+02  0.6573E+02
    -20.328  0.4079E+02  0.6630E+02
    -20.314  0.4098E+02  0.6687E+02
    -20.300  0.4116E+02  0.6745E+02
    -20.286  0.4131E+02  0.6803E+02
    -20.272  0.4144E+02  0.6861E+02
    -20.258  0.4154E+02  0.6919E+02
    -20.244  0.4162E+02  0.6977E+02
    -20.230  0.4167E+02  0.7035E+02
    -20.216  0.4170E+02  0.7094E+02
    -20.202  0.4171E+02  0.7152E+02
    -20.188  0.4170E+02  0.7210E+02
    -20.174  0.4167E+02  0.7268E+02
    -20.160  0.4163E+02  0.7327E+02
    -20.146  0.4157E+02  0.7385E+02
    -20.132  0.4151E+02  0.7443E+02
    -20.118  0.4144E+02  0.7501E+02
    -20.104  0.4136E+02  0.7559E+02
    -20.090  0.4129E+02  0.7616E+02
    -20.076  0.4121E+02  0.7674E+02
    -20.062  0.4114E+02  0.7732E+02
    -20.048  0.4108E+02  0.7789E+02
    -20.034  0.4102E+02  0.7846E+02
    -20.020  0.4097E+02  0.7904E+02
    -20.006  0.4093E+02  0.7961E+02
    -19.992  0.4089E+02  0.8018E+02
    -19.978  0.4087E+02  0.8075E+02
    -19.964  0.4084E+02  0.8132E+02
    -19.950  0.4083E+02  0.8190E+02
    -19.936  0.4082E+02  0.8247E+02
    -19.922  0.4082E+02  0.8304E+02
    -19.908  0.4082E+02  0.8361E+02
    -19.894  0.4082E+02  0.8418E+02
    -19.880  0.4082E+02  0.8475E+02
    -19.866  0.4082E+02  0.8532E+02
    -19.852  0.4082E+02  0.8589E+02
    -19.838  0.4082E+02  0.8646E+02
    -19.824  0.4081E+02  0.8703E+02
    -19.810  0.4080E+02  0.8760E+02
    -19.796  0.4078E+02  0.8817E+02
    -19.782  0.4076E+02  0.8874E+02
    -19.768  0.4073E+02  0.8931E+02
    -19.754  0.4070E+02  0.8988E+02
    -19.740  0.4066E+02  0.9045E+02
    -19.726  0.4063E+02  0.9102E+02
    -19.712  0.4059E+02  0.9159E+02
    -19.698  0.4056E+02  0.9216E+02
    -19.684  0.4054E+02  0.9272E+02
    -19.670  0.4052E+02  0.9329E+02
    -19.656  0.4052E+02  0.9386E+02
    -19.642  0.4053E+02  0.9442E+02
    -19.628  0.4055E+02  0.9499E+02
    -19.614  0.4060E+02  0.9556E+02
    -19.600  0.4066E+02  0.9613E+02
    -19.586  0.4075E+02  0.9670E+02
    -19.572  0.4085E+02  0.9727E+02
    -19.558  0.4098E+02  0.9784E+02
    -19.544  0.4113E+02  0.9842E+02
    -19.530  0.4129E+02  0.9899E+02
    -19.516  0.4147E+02  0.9957E+02
    -19.502  0.4167E+02  0.1002E+03
    -19.488  0.4187E+02  0.1007E+03
    -19.474  0.4208E+02  0.1013E+03
    -19.460  0.4230E+02  0.1019E+03
    -19.446  0.4251E+02  0.1025E+03
    -19.432  0.4271E+02  0.1031E+03
    -19.418  0.4291E+02  0.1037E+03
    -19.404  0.4309E+02  0.1043E+03
    -19.390  0.4326E+02  0.1049E+03
    -19.376  0.4340E+02  0.1055E+03
    -19.362  0.4352E+02  0.1061E+03
    -19.348  0.4361E+02  0.1067E+03
    -19.335  0.4368E+02  0.1074E+03
    -19.321  0.4370E+02  0.1080E+03
    -19.307  0.4370E+02  0.1086E+03
    -19.293  0.4365E+02  0.1092E+03
    -19.279  0.4358E+02  0.1098E+03
    -19.265  0.4347E+02  0.1104E+03
    -19.251  0.4332E+02  0.1110E+03
    -19.237  0.4315E+02  0.1116E+03
    -19.223  0.4294E+02  0.1122E+03
    -19.209  0.4272E+02  0.1128E+03
    -19.195  0.4248E+02  0.1134E+03
    -19.181  0.4223E+02  0.1140E+03
    -19.167  0.4197E+02  0.1146E+03
    -19.153  0.4171E+02  0.1152E+03
    -19.139  0.4146E+02  0.1158E+03
    -19.125  0.4123E+02  0.1163E+03
    -19.111  0.4102E+02  0.1169E+03
    -19.097  0.4083E+02  0.1175E+03
    -19.083  0.4068E+02  0.1180E+03
    -19.069  0.4056E+02  0.1186E+03
    -19.055  0.4049E+02  0.1192E+03
    -19.041  0.4046E+02  0.1197E+03
    -19.027  0.4046E+02  0.1203E+03
    -19.013  0.4052E+02  0.1209E+03
    -18.999  0.4061E+02  0.1214E+03
    -18.985  0.4073E+02  0.1220E+03
    -18.971  0.4090E+02  0.1226E+03
    -18.957  0.4108E+02  0.1232E+03
    -18.943  0.4129E+02  0.1237E+03
    -18.929  0.4152E+02  0.1243E+03
    -18.915  0.4175E+02  0.1249E+03
    -18.901  0.4198E+02  0.1255E+03
    -18.887  0.4221E+02  0.1261E+03
    -18.873  0.4242E+02  0.1267E+03
    -18.859  0.4261E+02  0.1273E+03
    -18.845  0.4279E+02  0.1279E+03
    -18.831  0.4293E+02  0.1285E+03
    -18.817  0.4304E+02  0.1291E+03
    -18.803  0.4312E+02  0.1297E+03
    -18.789  0.4317E+02  0.1303E+03
    -18.775  0.4318E+02  0.1309E+03
    -18.761  0.4316E+02  0.1315E+03
    -18.747  0.4311E+02  0.1321E+03
    -18.733  0.4304E+02  0.1327E+03
    -18.719  0.4294E+02  0.1333E+03
    -18.705  0.4282E+02  0.1339E+03
    -18.691  0.4269E+02  0.1345E+03
    -18.677  0.4255E+02  0.1351E+03
    -18.663  0.4241E+02  0.1357E+03
    -18.649  0.4227E+02  0.1363E+03
    -18.635  0.4213E+02  0.1369E+03
    -18.621  0.4200E+02  0.1374E+03
    -18.607  0.4189E+02  0.1380E+03
    -18.593  0.4179E+02  0.1386E+03
    -18.579  0.4170E+02  0.1392E+03
    -18.565  0.4164E+02  0.1398E+03
    -18.551  0.4160E+02  0.1404E+03
    -18.537  0.4158E+02  0.1409E+03
    -18.523  0.4158E+02  0.1415E+03
    -18.509  0.4161E+02  0.1421E+03
    -18.495  0.4166E+02  0.1427E+03
    -18.481  0.4173E+02  0.1433E+03
    -18.467  0.4182E+02  0.1439E+03
    -18.453  0.4193E+02  0.1444E+03
    -18.439  0.4205E+02  0.1450E+03
    -18.425  0.4220E+02  0.1456E+03
    -18.411  0.4236E+02  0.1462E+03
    -18.397  0.4253E+02  0.1468E+03
    -18.383  0.4271E+02  0.1474E+03
    -18.369  0.4290E+02  0.1480E+03
    -18.356  0.4309E+02  0.1486E+03
    -18.342  0.4329E+02  0.1492E+03
    -18.328  0.4348E+02  0.1498E+03
    -18.314  0.4368E+02  0.1504E+03
    -18.300  0.4387E+02  0.1510E+03
    -18.286  0.4405E+02  0.1517E+03
    -18.272  0.4423E+02  0.1523E+03
    -18.258  0.4439E+02  0.1529E+03
    -18.244  0.4455E+02  0.1535E+03
    -18.230  0.4469E+02  0.1541E+03
    -18.216  0.4482E+02  0.1548E+03
    -18.202  0.4493E+02  0.1554E+03
    -18.188  0.4503E+02  0.1560E+03
    -18.174  0.4512E+02  0.1567E+03
    -18.160  0.4519E+02  0.1573E+03
    -18.146  0.4525E+02  0.1579E+03
    -18.132  0.4530E+02  0.1586E+03
    -18.118  0.4533E+02  0.1592E+03
    -18.104  0.4536E+02  0.1598E+03
    -18.090  0.4538E+02  0.1605E+03
    -18.076  0.4539E+02  0.1611E+03
    -18.062  0.4539E+02  0.1617E+03
    -18.048  0.4539E+02  0.1624E+03
    -18.034  0.4539E+02  0.1630E+03
    -18.020  0.4538E+02  0.1636E+03
    -18.006  0.4538E+02  0.1643E+03
    -17.992  0.4538E+02  0.1649E+03
    -17.978  0.4539E+02  0.1655E+03
    -17.964  0.4541E+02  0.1662E+03
    -17.950  0.4543E+02  0.1668E+03
    -17.936  0.4548E+02  0.1674E+03
    -17.922  0.4553E+02  0.1681E+03
    -17.908  0.4561E+02  0.1687E+03
    -17.894  0.4571E+02  0.1694E+03
    -17.880  0.4583E+02  0.1700E+03
    -17.866  0.4598E+02  0.1706E+03
    -17.852  0.4615E+02  0.1713E+03
    -17.838  0.4635E+02  0.1719E+03
    -17.824  0.4657E+02  0.1726E+03
    -17.810  0.4682E+02  0.1732E+03
    -17.796  0.4708E+02  0.1739E+03
    -17.782  0.4737E+02  0.1746E+03
    -17.768  0.4766E+02  0.1752E+03
    -17.754  0.4796E+02  0.1759E+03
    -17.740  0.4825E+02  0.1766E+03
    -17.726  0.4854E+02  0.1773E+03
    -17.712  0.4881E+02  0.1779E+03
    -17.698  0.4906E+02  0.1786E+03
    -17.684  0.4928E+02  0.1793E+03
    -17.670  0.4945E+02  0.1800E+03
    -17.656  0.4959E+02  0.1807E+03
    -17.642  0.4968E+02  0.1814E+03
    -17.628  0.4971E+02  0.1821E+03
    -17.614  0.4970E+02  0.1828E+03
    -17.600  0.4963E+02  0.1835E+03
    -17.586  0.4950E+02  0.1842E+03
    -17.572  0.4933E+02  0.1849E+03
    -17.558  0.4911E+02  0.1855E+03
    -17.544  0.4885E+02  0.1862E+03
    -17.530  0.4857E+02  0.1869E+03
    -17.516  0.4826E+02  0.1876E+03
    -17.502  0.4793E+02  0.1883E+03
    -17.488  0.4760E+02  0.1889E+03
    -17.474  0.4728E+02  0.1896E+03
    -17.460  0.4696E+02  0.1902E+03
    -17.446  0.4667E+02  0.1909E+03
    -17.432  0.4640E+02  0.1915E+03
    -17.418  0.4617E+02  0.1922E+03
    -17.404  0.4597E+02  0.1928E+03
    -17.390  0.4580E+02  0.1935E+03
    -17.377  0.4568E+02  0.1941E+03
    -17.363  0.4560E+02  0.1947E+03
    -17.349  0.4554E+02  0.1954E+03
    -17.335  0.4552E+02  0.1960E+03
    -17.321  0.4552E+02  0.1967E+03
    -17.307  0.4554E+02  0.1973E+03
    -17.293  0.4557E+02  0.1979E+03
    -17.279  0.4561E+02  0.1986E+03
    -17.265  0.4563E+02  0.1992E+03
    -17.251  0.4565E+02  0.1998E+03
    -17.237  0.4565E+02  0.2005E+03
    -17.223  0.4562E+02  0.2011E+03
    -17.209  0.4556E+02  0.2018E+03
    -17.195  0.4547E+02  0.2024E+03
    -17.181  0.4534E+02  0.2030E+03
    -17.167  0.4518E+02  0.2037E+03
    -17.153  0.4497E+02  0.2043E+03
    -17.139  0.4473E+02  0.2049E+03
    -17.125  0.4446E+02  0.2055E+03
    -17.111  0.4415E+02  0.2062E+03
    -17.097  0.4381E+02  0.2068E+03
    -17.083  0.4344E+02  0.2074E+03
    -17.069  0.4305E+02  0.2080E+03
    -17.055  0.4264E+02  0.2086E+03
    -17.041  0.4221E+02  0.2092E+03
    -17.027  0.4176E+02  0.2097E+03
    -17.013  0.4130E+02  0.2103E+03
    -16.999  0.4083E+02  0.2109E+03
    -16.985  0.4034E+02  0.2115E+03
    -16.971  0.3984E+02  0.2120E+03
    -16.957  0.3933E+02  0.2126E+03
    -16.943  0.3881E+02  0.2131E+03
    -16.929  0.3828E+02  0.2136E+03
    -16.915  0.3773E+02  0.2142E+03
    -16.901  0.3718E+02  0.2147E+03
    -16.887  0.3662E+02  0.2152E+03
    -16.873  0.3605E+02  0.2157E+03
    -16.859  0.3547E+02  0.2162E+03
    -16.845  0.3490E+02  0.2167E+03
    -16.831  0.3432E+02  0.2172E+03
    -16.817  0.3375E+02  0.2176E+03
    -16.803  0.3318E+02  0.2181E+03
    -16.789  0.3263E+02  0.2186E+03
    -16.775  0.3209E+02  0.2190E+03
    -16.761  0.3158E+02  0.2195E+03
    -16.747  0.3109E+02  0.2199E+03
    -16.733  0.3062E+02  0.2203E+03
    -16.719  0.3019E+02  0.2207E+03
    -16.705  0.2979E+02  0.2212E+03
    -16.691  0.2941E+02  0.2216E+03
    -16.677  0.2907E+02  0.2220E+03
    -16.663  0.2876E+02  0.2224E+03
    -16.649  0.2848E+02  0.2228E+03
    -16.635  0.2822E+02  0.2232E+03
    -16.621  0.2799E+02  0.2236E+03
    -16.607  0.2778E+02  0.2240E+03
    -16.593  0.2760E+02  0.2243E+03
    -16.579  0.2743E+02  0.2247E+03
    -16.565  0.2727E+02  0.2251E+03
    -16.551  0.2714E+02  0.2255E+03
    -16.537  0.2702E+02  0.2259E+03
    -16.523  0.2691E+02  0.2262E+03
    -16.509  0.2682E+02  0.2266E+03
    -16.495  0.2675E+02  0.2270E+03
    -16.481  0.2670E+02  0.2274E+03
    -16.467  0.2667E+02  0.2277E+03
    -16.453  0.2666E+02  0.2281E+03
    -16.439  0.2668E+02  0.2285E+03
    -16.425  0.2672E+02  0.2289E+03
    -16.411  0.2679E+02  0.2292E+03
    -16.398  0.2689E+02  0.2296E+03
    -16.384  0.2701E+02  0.2300E+03
    -16.370  0.2716E+02  0.2304E+03
    -16.356  0.2734E+02  0.2307E+03
    -16.342  0.2755E+02  0.2311E+03
    -16.328  0.2778E+02  0.2315E+03
    -16.314  0.2803E+02  0.2319E+03
    -16.300  0.2829E+02  0.2323E+03
    -16.286  0.2857E+02  0.2327E+03
    -16.272  0.2885E+02  0.2331E+03
    -16.258  0.2914E+02  0.2335E+03
    -16.244  0.2943E+02  0.2339E+03
    -16.230  0.2971E+02  0.2343E+03
    -16.216  0.2998E+02  0.2348E+03
    -16.202  0.3023E+02  0.2352E+03
    -16.188  0.3046E+02  0.2356E+03
    -16.174  0.3067E+02  0.2360E+03
    -16.160  0.3086E+02  0.2365E+03
    -16.146  0.3102E+02  0.2369E+03
    -16.132  0.3115E+02  0.2373E+03
    -16.118  0.3126E+02  0.2378E+03
    -16.104  0.3135E+02  0.2382E+03
    -16.090  0.3143E+02  0.2387E+03
    -16.076  0.3149E+02  0.2391E+03
    -16.062  0.3156E+02  0.2395E+03
    -16.048  0.3163E+02  0.2400E+03
    -16.034  0.3171E+02  0.2404E+03
    -16.020  0.3183E+02  0.2409E+03
    -16.006  0.3197E+02  0.2413E+03
    -15.992  0.3216E+02  0.2418E+03
    -15.978  0.3240E+02  0.2422E+03
    -15.964  0.3270E+02  0.2427E+03
    -15.950  0.3306E+02  0.2431E+03
    -15.936  0.3348E+02  0.2436E+03
    -15.922  0.3396E+02  0.2441E+03
    -15.908  0.3451E+02  0.2446E+03
    -15.894  0.3511E+02  0.2451E+03
    -15.880  0.3577E+02  0.2456E+03
    -15.866  0.3646E+02  0.2461E+03
    -15.852  0.3718E+02  0.2466E+03
    -15.838  0.3792E+02  0.2471E+03
    -15.824  0.3866E+02  0.2477E+03
    -15.810  0.3939E+02  0.2482E+03
    -15.796  0.4010E+02  0.2488E+03
    -15.782  0.4077E+02  0.2493E+03
    -15.768  0.4139E+02  0.2499E+03
    -15.754  0.4196E+02  0.2505E+03
    -15.740  0.4246E+02  0.2511E+03
    -15.726  0.4289E+02  0.2517E+03
    -15.712  0.4325E+02  0.2523E+03
    -15.698  0.4354E+02  0.2529E+03
    -15.684  0.4376E+02  0.2535E+03
    -15.670  0.4392E+02  0.2541E+03
    -15.656  0.4401E+02  0.2548E+03
    -15.642  0.4406E+02  0.2554E+03
    -15.628  0.4407E+02  0.2560E+03
    -15.614  0.4406E+02  0.2566E+03
    -15.600  0.4403E+02  0.2572E+03
    -15.586  0.4399E+02  0.2578E+03
    -15.572  0.4396E+02  0.2584E+03
    -15.558  0.4395E+02  0.2591E+03
    -15.544  0.4396E+02  0.2597E+03
    -15.530  0.4401E+02  0.2603E+03
    -15.516  0.4409E+02  0.2609E+03
    -15.502  0.4421E+02  0.2615E+03
    -15.488  0.4437E+02  0.2621E+03
    -15.474  0.4457E+02  0.2628E+03
    -15.460  0.4480E+02  0.2634E+03
    -15.446  0.4507E+02  0.2640E+03
    -15.432  0.4536E+02  0.2647E+03
    -15.419  0.4568E+02  0.2653E+03
    -15.405  0.4601E+02  0.2659E+03
    -15.391  0.4635E+02  0.2666E+03
    -15.377  0.4670E+02  0.2672E+03
    -15.363  0.4704E+02  0.2679E+03
    -15.349  0.4738E+02  0.2686E+03
    -15.335  0.4770E+02  0.2692E+03
    -15.321  0.4801E+02  0.2699E+03
    -15.307  0.4831E+02  0.2706E+03
    -15.293  0.4858E+02  0.2713E+03
    -15.279  0.4883E+02  0.2719E+03
    -15.265  0.4906E+02  0.2726E+03
    -15.251  0.4927E+02  0.2733E+03
    -15.237  0.4946E+02  0.2740E+03
    -15.223  0.4962E+02  0.2747E+03
    -15.209  0.4976E+02  0.2754E+03
    -15.195  0.4987E+02  0.2761E+03
    -15.181  0.4996E+02  0.2768E+03
    -15.167  0.5003E+02  0.2775E+03
    -15.153  0.5007E+02  0.2782E+03
    -15.139  0.5010E+02  0.2789E+03
    -15.125  0.5010E+02  0.2796E+03
    -15.111  0.5009E+02  0.2803E+03
    -15.097  0.5006E+02  0.2810E+03
    -15.083  0.5002E+02  0.2817E+03
    -15.069  0.4997E+02  0.2824E+03
    -15.055  0.4990E+02  0.2831E+03
    -15.041  0.4983E+02  0.2838E+03
    -15.027  0.4974E+02  0.2845E+03
    -15.013  0.4965E+02  0.2852E+03
    -14.999  0.4955E+02  0.2859E+03
    -14.985  0.4944E+02  0.2866E+03
    -14.971  0.4932E+02  0.2873E+03
    -14.957  0.4919E+02  0.2879E+03
    -14.943  0.4905E+02  0.2886E+03
    -14.929  0.4889E+02  0.2893E+03
    -14.915  0.4872E+02  0.2900E+03
    -14.901  0.4853E+02  0.2907E+03
    -14.887  0.4832E+02  0.2914E+03
    -14.873  0.4810E+02  0.2920E+03
    -14.859  0.4786E+02  0.2927E+03
    -14.845  0.4761E+02  0.2934E+03
    -14.831  0.4735E+02  0.2940E+03
    -14.817  0.4707E+02  0.2947E+03
    -14.803  0.4678E+02  0.2953E+03
    -14.789  0.4650E+02  0.2960E+03
    -14.775  0.4621E+02  0.2966E+03
    -14.761  0.4592E+02  0.2973E+03
    -14.747  0.4564E+02  0.2979E+03
    -14.733  0.4537E+02  0.2985E+03
    -14.719  0.4512E+02  0.2992E+03
    -14.705  0.4488E+02  0.2998E+03
    -14.691  0.4465E+02  0.3004E+03
    -14.677  0.4445E+02  0.3011E+03
    -14.663  0.4427E+02  0.3017E+03
    -14.649  0.4410E+02  0.3023E+03
    -14.635  0.4396E+02  0.3029E+03
    -14.621  0.4383E+02  0.3035E+03
    -14.607  0.4373E+02  0.3041E+03
    -14.593  0.4363E+02  0.3047E+03
    -14.579  0.4356E+02  0.3053E+03
    -14.565  0.4349E+02  0.3060E+03
    -14.551  0.4344E+02  0.3066E+03
    -14.537  0.4339E+02  0.3072E+03
    -14.523  0.4336E+02  0.3078E+03
    -14.509  0.4332E+02  0.3084E+03
    -14.495  0.4330E+02  0.3090E+03
    -14.481  0.4328E+02  0.3096E+03
    -14.467  0.4326E+02  0.3102E+03
    -14.453  0.4325E+02  0.3108E+03
    -14.440  0.4325E+02  0.3114E+03
    -14.426  0.4325E+02  0.3120E+03
    -14.412  0.4326E+02  0.3126E+03
    -14.398  0.4327E+02  0.3132E+03
    -14.384  0.4329E+02  0.3138E+03
    -14.370  0.4332E+02  0.3144E+03
    -14.356  0.4335E+02  0.3150E+03
    -14.342  0.4338E+02  0.3156E+03
    -14.328  0.4341E+02  0.3163E+03
    -14.314  0.4344E+02  0.3169E+03
    -14.300  0.4347E+02  0.3175E+03
    -14.286  0.4348E+02  0.3181E+03
    -14.272  0.4349E+02  0.3187E+03
    -14.258  0.4348E+02  0.3193E+03
    -14.244  0.4345E+02  0.3199E+03
    -14.230  0.4341E+02  0.3205E+03
    -14.216  0.4334E+02  0.3211E+03
    -14.202  0.4324E+02  0.3217E+03
    -14.188  0.4313E+02  0.3223E+03
    -14.174  0.4299E+02  0.3229E+03
    -14.160  0.4282E+02  0.3235E+03
    -14.146  0.4264E+02  0.3241E+03
    -14.132  0.4244E+02  0.3247E+03
    -14.118  0.4222E+02  0.3253E+03
    -14.104  0.4199E+02  0.3259E+03
    -14.090  0.4175E+02  0.3265E+03
    -14.076  0.4150E+02  0.3271E+03
    -14.062  0.4126E+02  0.3276E+03
    -14.048  0.4101E+02  0.3282E+03
    -14.034  0.4076E+02  0.3288E+03
    -14.020  0.4051E+02  0.3293E+03
    -14.006  0.4026E+02  0.3299E+03
    -13.992  0.4002E+02  0.3305E+03
    -13.978  0.3977E+02  0.3310E+03
    -13.964  0.3953E+02  0.3316E+03
    -13.950  0.3929E+02  0.3321E+03
    -13.936  0.3905E+02  0.3327E+03
    -13.922  0.3881E+02  0.3332E+03
    -13.908  0.3858E+02  0.3338E+03
    -13.894  0.3836E+02  0.3343E+03
    -13.880  0.3814E+02  0.3348E+03
    -13.866  0.3794E+02  0.3354E+03
    -13.852  0.3775E+02  0.3359E+03
    -13.838  0.3758E+02  0.3364E+03
    -13.824  0.3744E+02  0.3369E+03
    -13.810  0.3733E+02  0.3375E+03
    -13.796  0.3725E+02  0.3380E+03
    -13.782  0.3721E+02  0.3385E+03
    -13.768  0.3720E+02  0.3390E+03
    -13.754  0.3723E+02  0.3395E+03
    -13.740  0.3729E+02  0.3401E+03
    -13.726  0.3739E+02  0.3406E+03
    -13.712  0.3753E+02  0.3411E+03
    -13.698  0.3768E+02  0.3416E+03
    -13.684  0.3786E+02  0.3422E+03
    -13.670  0.3806E+02  0.3427E+03
    -13.656  0.3826E+02  0.3432E+03
    -13.642  0.3847E+02  0.3438E+03
    -13.628  0.3867E+02  0.3443E+03
    -13.614  0.3887E+02  0.3448E+03
    -13.600  0.3905E+02  0.3454E+03
    -13.586  0.3921E+02  0.3459E+03
    -13.572  0.3935E+02  0.3465E+03
    -13.558  0.3947E+02  0.3470E+03
    -13.544  0.3956E+02  0.3476E+03
    -13.530  0.3962E+02  0.3482E+03
    -13.516  0.3966E+02  0.3487E+03
    -13.502  0.3967E+02  0.3493E+03
    -13.488  0.3966E+02  0.3498E+03
    -13.474  0.3963E+02  0.3504E+03
    -13.460  0.3959E+02  0.3509E+03
    -13.447  0.3952E+02  0.3515E+03
    -13.433  0.3944E+02  0.3520E+03
    -13.419  0.3935E+02  0.3526E+03
    -13.405  0.3925E+02  0.3531E+03
    -13.391  0.3914E+02  0.3537E+03
    -13.377  0.3902E+02  0.3542E+03
    -13.363  0.3890E+02  0.3548E+03
    -13.349  0.3878E+02  0.3553E+03
    -13.335  0.3866E+02  0.3558E+03
    -13.321  0.3854E+02  0.3564E+03
    -13.307  0.3843E+02  0.3569E+03
    -13.293  0.3833E+02  0.3575E+03
    -13.279  0.3824E+02  0.3580E+03
    -13.265  0.3816E+02  0.3585E+03
    -13.251  0.3810E+02  0.3591E+03
    -13.237  0.3806E+02  0.3596E+03
    -13.223  0.3804E+02  0.3601E+03
    -13.209  0.3805E+02  0.3607E+03
    -13.195  0.3809E+02  0.3612E+03
    -13.181  0.3815E+02  0.3617E+03
    -13.167  0.3825E+02  0.3623E+03
    -13.153  0.3837E+02  0.3628E+03
    -13.139  0.3851E+02  0.3633E+03
    -13.125  0.3869E+02  0.3639E+03
    -13.111  0.3888E+02  0.3644E+03
    -13.097  0.3910E+02  0.3650E+03
    -13.083  0.3933E+02  0.3655E+03
    -13.069  0.3957E+02  0.3661E+03
    -13.055  0.3982E+02  0.3666E+03
    -13.041  0.4008E+02  0.3672E+03
    -13.027  0.4034E+02  0.3678E+03
    -13.013  0.4060E+02  0.3683E+03
    -12.999  0.4086E+02  0.3689E+03
    -12.985  0.4113E+02  0.3695E+03
    -12.971  0.4139E+02  0.3700E+03
    -12.957  0.4165E+02  0.3706E+03
    -12.943  0.4191E+02  0.3712E+03
    -12.929  0.4217E+02  0.3718E+03
    -12.915  0.4243E+02  0.3724E+03
    -12.901  0.4270E+02  0.3730E+03
    -12.887  0.4296E+02  0.3736E+03
    -12.873  0.4323E+02  0.3742E+03
    -12.859  0.4350E+02  0.3748E+03
    -12.845  0.4378E+02  0.3754E+03
    -12.831  0.4405E+02  0.3760E+03
    -12.817  0.4432E+02  0.3767E+03
    -12.803  0.4459E+02  0.3773E+03
    -12.789  0.4486E+02  0.3779E+03
    -12.775  0.4512E+02  0.3785E+03
    -12.761  0.4537E+02  0.3792E+03
    -12.747  0.4562E+02  0.3798E+03
    -12.733  0.4585E+02  0.3805E+03
    -12.719  0.4608E+02  0.3811E+03
    -12.705  0.4630E+02  0.3817E+03
    -12.691  0.4651E+02  0.3824E+03
    -12.677  0.4670E+02  0.3830E+03
    -12.663  0.4690E+02  0.3837E+03
    -12.649  0.4708E+02  0.3844E+03
    -12.635  0.4726E+02  0.3850E+03
    -12.621  0.4744E+02  0.3857E+03