 185 185   0   0
  0.4712334E+02  0.2379577E-08  0.1831800E-08  0.2000000E-08  0.5000000E-15
  1.000000000000000E-004
  CAR 
 unknown system                          
      3.29587044    -24.44705101 2000     -3.49683788      1.00000000
    -24.447  0.0000E+00  0.0000E+00
    -24.433  0.0000E+00  0.0000E+00
    -24.419  0.0000E+00  0.0000E+00
    -24.405  0.0000E+00  0.0000E+00
    -24.392  0.0000E+00  0.0000E+00
    -24.378  0.0000E+00  0.0000E+00
    -24.364  0.0000E+00  0.0000E+00
    -24.350  0.0000E+00  0.0000E+00
    -24.336  0.0000E+00  0.0000E+00
    -24.322  0.0000E+00  0.0000E+00
    -24.308  0.0000E+00  0.0000E+00
    -24.294  0.0000E+00  0.0000E+00
    -24.281  0.0000E+00  0.0000E+00
    -24.267  0.0000E+00  0.0000E+00
    -24.253  0.0000E+00  0.0000E+00
    -24.239  0.0000E+00  0.0000E+00
    -24.225  0.0000E+00  0.0000E+00
    -24.211  0.0000E+00  0.0000E+00
    -24.197  0.0000E+00  0.0000E+00
    -24.183  0.0000E+00  0.0000E+00
    -24.169  0.0000E+00  0.0000E+00
    -24.156  0.0000E+00  0.0000E+00
    -24.142  0.0000E+00  0.0000E+00
    -24.128  0.0000E+00  0.0000E+00
    -24.114  0.0000E+00  0.0000E+00
    -24.100  0.0000E+00  0.0000E+00
    -24.086  0.0000E+00  0.0000E+00
    -24.072  0.0000E+00  0.0000E+00
    -24.058  0.0000E+00  0.0000E+00
    -24.045  0.0000E+00  0.0000E+00
    -24.031  0.0000E+00  0.0000E+00
    -24.017  0.0000E+00  0.0000E+00
    -24.003  0.0000E+00  0.0000E+00
    -23.989  0.0000E+00  0.0000E+00
    -23.975  0.0000E+00  0.0000E+00
    -23.961  0.0000E+00  0.0000E+00
    -23.947  0.0000E+00  0.0000E+00
    -23.934  0.0000E+00  0.0000E+00
    -23.920  0.0000E+00  0.0000E+00
    -23.906  0.0000E+00  0.0000E+00
    -23.892  0.0000E+00  0.0000E+00
    -23.878  0.0000E+00  0.0000E+00
    -23.864  0.0000E+00  0.0000E+00
    -23.850  0.0000E+00  0.0000E+00
    -23.836  0.0000E+00  0.0000E+00
    -23.823  0.0000E+00  0.0000E+00
    -23.809  0.0000E+00  0.0000E+00
    -23.795  0.0000E+00  0.0000E+00
    -23.781  0.0000E+00  0.0000E+00
    -23.767  0.0000E+00  0.0000E+00
    -23.753  0.0000E+00  0.0000E+00
    -23.739  0.0000E+00  0.0000E+00
    -23.725  0.0000E+00  0.0000E+00
    -23.711  0.0000E+00  0.0000E+00
    -23.698  0.0000E+00  0.0000E+00
    -23.684  0.0000E+00  0.0000E+00
    -23.670  0.0000E+00  0.0000E+00
    -23.656  0.0000E+00  0.0000E+00
    -23.642  0.0000E+00  0.0000E+00
    -23.628  0.8000E-14  0.1110E-15
    -23.614  0.0000E+00  0.1110E-15
    -23.600  0.1600E-13  0.3331E-15
    -23.587  0.3200E-13  0.7772E-15
    -23.573  0.6666E-13  0.1702E-14
    -23.559  0.1440E-12  0.3701E-14
    -23.545  0.3209E-12  0.8154E-14
    -23.531  0.6791E-12  0.1758E-13
    -23.517  0.1441E-11  0.3757E-13
    -23.503  0.3026E-11  0.7957E-13
    -23.489  0.6297E-11  0.1670E-12
    -23.476  0.1297E-10  0.3470E-12
    -23.462  0.2648E-10  0.7145E-12
    -23.448  0.5351E-10  0.1457E-11
    -23.434  0.1071E-09  0.2944E-11
    -23.420  0.2124E-09  0.5892E-11
    -23.406  0.4171E-09  0.1168E-10
    -23.392  0.8113E-09  0.2294E-10
    -23.378  0.1563E-08  0.4463E-10
    -23.365  0.2982E-08  0.8601E-10
    -23.351  0.5634E-08  0.1642E-09
    -23.337  0.1054E-07  0.3105E-09
    -23.323  0.1954E-07  0.5818E-09
    -23.309  0.3588E-07  0.1080E-08
    -23.295  0.6524E-07  0.1985E-08
    -23.281  0.1175E-06  0.3616E-08
    -23.267  0.2095E-06  0.6524E-08
    -23.254  0.3701E-06  0.1166E-07
    -23.240  0.6476E-06  0.2065E-07
    -23.226  0.1122E-05  0.3622E-07
    -23.212  0.1926E-05  0.6295E-07
    -23.198  0.3274E-05  0.1084E-06
    -23.184  0.5511E-05  0.1849E-06
    -23.170  0.9189E-05  0.3124E-06
    -23.156  0.1518E-04  0.5230E-06
    -23.142  0.2482E-04  0.8675E-06
    -23.129  0.4021E-04  0.1426E-05
    -23.115  0.6451E-04  0.2321E-05
    -23.101  0.1025E-03  0.3744E-05
    -23.087  0.1613E-03  0.5983E-05
    -23.073  0.2515E-03  0.9473E-05
    -23.059  0.3883E-03  0.1486E-04
    -23.045  0.5937E-03  0.2310E-04
    -23.031  0.8991E-03  0.3558E-04
    -23.018  0.1349E-02  0.5430E-04
    -23.004  0.2003E-02  0.8210E-04
    -22.990  0.2948E-02  0.1230E-03
    -22.976  0.4295E-02  0.1826E-03
    -22.962  0.6200E-02  0.2687E-03
    -22.948  0.8862E-02  0.3917E-03
    -22.934  0.1255E-01  0.5658E-03
    -22.920  0.1759E-01  0.8100E-03
    -22.907  0.2443E-01  0.1149E-02
    -22.893  0.3361E-01  0.1615E-02
    -22.879  0.4578E-01  0.2251E-02
    -22.865  0.6178E-01  0.3108E-02
    -22.851  0.8256E-01  0.4254E-02
    -22.837  0.1093E+00  0.5770E-02
    -22.823  0.1432E+00  0.7758E-02
    -22.809  0.1860E+00  0.1034E-01
    -22.796  0.2392E+00  0.1366E-01
    -22.782  0.3046E+00  0.1789E-01
    -22.768  0.3842E+00  0.2322E-01
    -22.754  0.4800E+00  0.2988E-01
    -22.740  0.5940E+00  0.3812E-01
    -22.726  0.7281E+00  0.4823E-01
    -22.712  0.8838E+00  0.6050E-01
    -22.698  0.1063E+01  0.7524E-01
    -22.684  0.1265E+01  0.9281E-01
    -22.671  0.1493E+01  0.1135E+00
    -22.657  0.1744E+01  0.1377E+00
    -22.643  0.2018E+01  0.1657E+00
    -22.629  0.2314E+01  0.1978E+00
    -22.615  0.2627E+01  0.2343E+00
    -22.601  0.2955E+01  0.2753E+00
    -22.587  0.3293E+01  0.3210E+00
    -22.573  0.3636E+01  0.3715E+00
    -22.560  0.3977E+01  0.4267E+00
    -22.546  0.4311E+01  0.4865E+00
    -22.532  0.4630E+01  0.5508E+00
    -22.518  0.4930E+01  0.6192E+00
    -22.504  0.5203E+01  0.6914E+00
    -22.490  0.5445E+01  0.7670E+00
    -22.476  0.5653E+01  0.8454E+00
    -22.462  0.5823E+01  0.9262E+00
    -22.449  0.5953E+01  0.1009E+01
    -22.435  0.6046E+01  0.1093E+01
    -22.421  0.6102E+01  0.1177E+01
    -22.407  0.6125E+01  0.1262E+01
    -22.393  0.6121E+01  0.1347E+01
    -22.379  0.6096E+01  0.1432E+01
    -22.365  0.6058E+01  0.1516E+01
    -22.351  0.6014E+01  0.1600E+01
    -22.338  0.5973E+01  0.1682E+01
    -22.324  0.5944E+01  0.1765E+01
    -22.310  0.5935E+01  0.1847E+01
    -22.296  0.5952E+01  0.1930E+01
    -22.282  0.6003E+01  0.2013E+01
    -22.268  0.6091E+01  0.2098E+01
    -22.254  0.6221E+01  0.2184E+01
    -22.240  0.6396E+01  0.2273E+01
    -22.227  0.6616E+01  0.2365E+01
    -22.213  0.6882E+01  0.2460E+01
    -22.199  0.7192E+01  0.2560E+01
    -22.185  0.7547E+01  0.2665E+01
    -22.171  0.7943E+01  0.2775E+01
    -22.157  0.8378E+01  0.2891E+01
    -22.143  0.8851E+01  0.3014E+01
    -22.129  0.9359E+01  0.3144E+01
    -22.115  0.9902E+01  0.3281E+01
    -22.102  0.1048E+02  0.3427E+01
    -22.088  0.1108E+02  0.3581E+01
    -22.074  0.1172E+02  0.3743E+01
    -22.060  0.1238E+02  0.3915E+01
    -22.046  0.1307E+02  0.4097E+01
    -22.032  0.1379E+02  0.4288E+01
    -22.018  0.1453E+02  0.4490E+01
    -22.004  0.1529E+02  0.4702E+01
    -21.991  0.1606E+02  0.4925E+01
    -21.977  0.1685E+02  0.5159E+01
    -21.963  0.1763E+02  0.5403E+01
    -21.949  0.1841E+02  0.5659E+01
    -21.935  0.1918E+02  0.5925E+01
    -21.921  0.1993E+02  0.6201E+01
    -21.907  0.2064E+02  0.6488E+01
    -21.893  0.2132E+02  0.6784E+01
    -21.880  0.2195E+02  0.7089E+01
    -21.866  0.2253E+02  0.7401E+01
    -21.852  0.2304E+02  0.7721E+01
    -21.838  0.2348E+02  0.8047E+01
    -21.824  0.2385E+02  0.8378E+01
    -21.810  0.2415E+02  0.8713E+01
    -21.796  0.2436E+02  0.9051E+01
    -21.782  0.2450E+02  0.9391E+01
    -21.769  0.2455E+02  0.9732E+01
    -21.755  0.2453E+02  0.1007E+02
    -21.741  0.2444E+02  0.1041E+02
    -21.727  0.2428E+02  0.1075E+02
    -21.713  0.2405E+02  0.1108E+02
    -21.699  0.2377E+02  0.1141E+02
    -21.685  0.2343E+02  0.1174E+02
    -21.671  0.2305E+02  0.1206E+02
    -21.657  0.2264E+02  0.1237E+02
    -21.644  0.2220E+02  0.1268E+02
    -21.630  0.2175E+02  0.1298E+02
    -21.616  0.2129E+02  0.1328E+02
    -21.602  0.2083E+02  0.1357E+02
    -21.588  0.2038E+02  0.1385E+02
    -21.574  0.1996E+02  0.1413E+02
    -21.560  0.1957E+02  0.1440E+02
    -21.546  0.1922E+02  0.1466E+02
    -21.533  0.1891E+02  0.1493E+02
    -21.519  0.1867E+02  0.1519E+02
    -21.505  0.1848E+02  0.1544E+02
    -21.491  0.1836E+02  0.1570E+02
    -21.477  0.1831E+02  0.1595E+02
    -21.463  0.1833E+02  0.1621E+02
    -21.449  0.1843E+02  0.1646E+02
    -21.435  0.1859E+02  0.1672E+02
    -21.422  0.1882E+02  0.1698E+02
    -21.408  0.1911E+02  0.1725E+02
    -21.394  0.1946E+02  0.1752E+02
    -21.380  0.1985E+02  0.1779E+02
    -21.366  0.2029E+02  0.1807E+02
    -21.352  0.2076E+02  0.1836E+02
    -21.338  0.2125E+02  0.1866E+02
    -21.324  0.2175E+02  0.1896E+02
    -21.311  0.2226E+02  0.1927E+02
    -21.297  0.2277E+02  0.1958E+02
    -21.283  0.2327E+02  0.1991E+02
    -21.269  0.2375E+02  0.2024E+02
    -21.255  0.2421E+02  0.2057E+02
    -21.241  0.2466E+02  0.2091E+02
    -21.227  0.2508E+02  0.2126E+02
    -21.213  0.2547E+02  0.2161E+02
    -21.200  0.2585E+02  0.2197E+02
    -21.186  0.2621E+02  0.2234E+02
    -21.172  0.2655E+02  0.2271E+02
    -21.158  0.2688E+02  0.2308E+02
    -21.144  0.2721E+02  0.2346E+02
    -21.130  0.2753E+02  0.2384E+02
    -21.116  0.2785E+02  0.2423E+02
    -21.102  0.2818E+02  0.2462E+02
    -21.088  0.2850E+02  0.2501E+02
    -21.075  0.2884E+02  0.2541E+02
    -21.061  0.2917E+02  0.2582E+02
    -21.047  0.2951E+02  0.2623E+02
    -21.033  0.2985E+02  0.2664E+02
    -21.019  0.3019E+02  0.2706E+02
    -21.005  0.3052E+02  0.2748E+02
    -20.991  0.3083E+02  0.2791E+02
    -20.977  0.3113E+02  0.2834E+02
    -20.964  0.3141E+02  0.2878E+02
    -20.950  0.3167E+02  0.2922E+02
    -20.936  0.3190E+02  0.2966E+02
    -20.922  0.3209E+02  0.3011E+02
    -20.908  0.3225E+02  0.3055E+02
    -20.894  0.3238E+02  0.3100E+02
    -20.880  0.3248E+02  0.3145E+02
    -20.866  0.3254E+02  0.3191E+02
    -20.853  0.3257E+02  0.3236E+02
    -20.839  0.3256E+02  0.3281E+02
    -20.825  0.3253E+02  0.3326E+02
    -20.811  0.3247E+02  0.3371E+02
    -20.797  0.3239E+02  0.3416E+02
    -20.783  0.3228E+02  0.3461E+02
    -20.769  0.3216E+02  0.3506E+02
    -20.755  0.3201E+02  0.3550E+02
    -20.742  0.3185E+02  0.3594E+02
    -20.728  0.3167E+02  0.3638E+02
    -20.714  0.3148E+02  0.3682E+02
    -20.700  0.3127E+02  0.3725E+02
    -20.686  0.3106E+02  0.3768E+02
    -20.672  0.3083E+02  0.3811E+02
    -20.658  0.3059E+02  0.3854E+02
    -20.644  0.3034E+02  0.3896E+02
    -20.630  0.3009E+02  0.3937E+02
    -20.617  0.2982E+02  0.3979E+02
    -20.603  0.2956E+02  0.4020E+02
    -20.589  0.2929E+02  0.4061E+02
    -20.575  0.2902E+02  0.4101E+02
    -20.561  0.2875E+02  0.4141E+02
    -20.547  0.2848E+02  0.4180E+02
    -20.533  0.2823E+02  0.4219E+02
    -20.519  0.2799E+02  0.4258E+02
    -20.506  0.2777E+02  0.4297E+02
    -20.492  0.2756E+02  0.4335E+02
    -20.478  0.2738E+02  0.4373E+02
    -20.464  0.2723E+02  0.4411E+02
    -20.450  0.2711E+02  0.4448E+02
    -20.436  0.2702E+02  0.4486E+02
    -20.422  0.2696E+02  0.4523E+02
    -20.408  0.2694E+02  0.4561E+02
    -20.395  0.2695E+02  0.4598E+02
    -20.381  0.2698E+02  0.4636E+02
    -20.367  0.2705E+02  0.4673E+02
    -20.353  0.2714E+02  0.4711E+02
    -20.339  0.2724E+02  0.4749E+02
    -20.325  0.2736E+02  0.4787E+02
    -20.311  0.2748E+02  0.4825E+02
    -20.297  0.2759E+02  0.4863E+02
    -20.284  0.2770E+02  0.4901E+02
    -20.270  0.2779E+02  0.4940E+02
    -20.256  0.2786E+02  0.4979E+02
    -20.242  0.2790E+02  0.5017E+02
    -20.228  0.2791E+02  0.5056E+02
    -20.214  0.2789E+02  0.5095E+02
    -20.200  0.2783E+02  0.5134E+02
    -20.186  0.2774E+02  0.5172E+02
    -20.173  0.2761E+02  0.5210E+02
    -20.159  0.2746E+02  0.5248E+02
    -20.145  0.2728E+02  0.5286E+02
    -20.131  0.2708E+02  0.5324E+02
    -20.117  0.2687E+02  0.5361E+02
    -20.103  0.2666E+02  0.5398E+02
    -20.089  0.2645E+02  0.5435E+02
    -20.075  0.2625E+02  0.5471E+02
    -20.061  0.2606E+02  0.5507E+02
    -20.048  0.2590E+02  0.5543E+02
    -20.034  0.2576E+02  0.5579E+02
    -20.020  0.2565E+02  0.5615E+02
    -20.006  0.2558E+02  0.5650E+02
    -19.992  0.2554E+02  0.5686E+02
    -19.978  0.2553E+02  0.5721E+02
    -19.964  0.2556E+02  0.5757E+02
    -19.950  0.2563E+02  0.5792E+02
    -19.937  0.2572E+02  0.5828E+02
    -19.923  0.2584E+02  0.5864E+02
    -19.909  0.2599E+02  0.5900E+02
    -19.895  0.2617E+02  0.5936E+02
    -19.881  0.2636E+02  0.5973E+02
    -19.867  0.2658E+02  0.6010E+02
    -19.853  0.2681E+02  0.6047E+02
    -19.839  0.2705E+02  0.6084E+02
    -19.826  0.2731E+02  0.6122E+02
    -19.812  0.2758E+02  0.6161E+02
    -19.798  0.2786E+02  0.6199E+02
    -19.784  0.2814E+02  0.6238E+02
    -19.770  0.2844E+02  0.6278E+02
    -19.756  0.2873E+02  0.6318E+02
    -19.742  0.2903E+02  0.6358E+02
    -19.728  0.2934E+02  0.6399E+02
    -19.715  0.2964E+02  0.6440E+02
    -19.701  0.2994E+02  0.6481E+02
    -19.687  0.3023E+02  0.6523E+02
    -19.673  0.3052E+02  0.6566E+02
    -19.659  0.3079E+02  0.6608E+02
    -19.645  0.3105E+02  0.6651E+02
    -19.631  0.3129E+02  0.6695E+02
    -19.617  0.3151E+02  0.6739E+02
    -19.603  0.3170E+02  0.6783E+02
    -19.590  0.3186E+02  0.6827E+02
    -19.576  0.3200E+02  0.6871E+02
    -19.562  0.3210E+02  0.6916E+02
    -19.548  0.3216E+02  0.6960E+02
    -19.534  0.3220E+02  0.7005E+02
    -19.520  0.3219E+02  0.7050E+02
    -19.506  0.3216E+02  0.7094E+02
    -19.492  0.3210E+02  0.7139E+02
    -19.479  0.3200E+02  0.7183E+02
    -19.465  0.3189E+02  0.7228E+02
    -19.451  0.3175E+02  0.7272E+02
    -19.437  0.3159E+02  0.7315E+02
    -19.423  0.3142E+02  0.7359E+02
    -19.409  0.3124E+02  0.7402E+02
    -19.395  0.3105E+02  0.7446E+02
    -19.381  0.3086E+02  0.7488E+02
    -19.368  0.3067E+02  0.7531E+02
    -19.354  0.3049E+02  0.7573E+02
    -19.340  0.3030E+02  0.7615E+02
    -19.326  0.3013E+02  0.7657E+02
    -19.312  0.2995E+02  0.7699E+02
    -19.298  0.2979E+02  0.7740E+02
    -19.284  0.2963E+02  0.7781E+02
    -19.270  0.2948E+02  0.7822E+02
    -19.257  0.2933E+02  0.7863E+02
    -19.243  0.2918E+02  0.7903E+02
    -19.229  0.2904E+02  0.7944E+02
    -19.215  0.2889E+02  0.7984E+02
    -19.201  0.2875E+02  0.8024E+02
    -19.187  0.2861E+02  0.8063E+02
    -19.173  0.2847E+02  0.8103E+02
    -19.159  0.2833E+02  0.8142E+02
    -19.146  0.2819E+02  0.8181E+02
    -19.132  0.2807E+02  0.8220E+02
    -19.118  0.2795E+02  0.8259E+02
    -19.104  0.2784E+02  0.8298E+02
    -19.090  0.2774E+02  0.8336E+02
    -19.076  0.2767E+02  0.8374E+02
    -19.062  0.2761E+02  0.8413E+02
    -19.048  0.2758E+02  0.8451E+02
    -19.034  0.2758E+02  0.8489E+02
    -19.021  0.2760E+02  0.8528E+02
    -19.007  0.2765E+02  0.8566E+02
    -18.993  0.2774E+02  0.8605E+02
    -18.979  0.2785E+02  0.8643E+02
    -18.965  0.2798E+02  0.8682E+02
    -18.951  0.2815E+02  0.8721E+02
    -18.937  0.2833E+02  0.8760E+02
    -18.923  0.2854E+02  0.8800E+02
    -18.910  0.2876E+02  0.8840E+02
    -18.896  0.2899E+02  0.8880E+02
    -18.882  0.2923E+02  0.8921E+02
    -18.868  0.2947E+02  0.8962E+02
    -18.854  0.2972E+02  0.9003E+02
    -18.840  0.2996E+02  0.9044E+02
    -18.826  0.3020E+02  0.9086E+02
    -18.812  0.3043E+02  0.9129E+02
    -18.799  0.3065E+02  0.9171E+02
    -18.785  0.3086E+02  0.9214E+02
    -18.771  0.3106E+02  0.9257E+02
    -18.757  0.3125E+02  0.9300E+02
    -18.743  0.3144E+02  0.9344E+02
    -18.729  0.3161E+02  0.9388E+02
    -18.715  0.3177E+02  0.9432E+02
    -18.701  0.3193E+02  0.9476E+02
    -18.688  0.3207E+02  0.9521E+02
    -18.674  0.3220E+02  0.9566E+02
    -18.660  0.3231E+02  0.9610E+02
    -18.646  0.3242E+02  0.9655E+02
    -18.632  0.3250E+02  0.9700E+02
    -18.618  0.3257E+02  0.9746E+02
    -18.604  0.3262E+02  0.9791E+02
    -18.590  0.3265E+02  0.9836E+02
    -18.576  0.3265E+02  0.9882E+02
    -18.563  0.3264E+02  0.9927E+02
    -18.549  0.3260E+02  0.9972E+02
    -18.535  0.3255E+02  0.1002E+03
    -18.521  0.3248E+02  0.1006E+03
    -18.507  0.3239E+02  0.1011E+03
    -18.493  0.3230E+02  0.1015E+03
    -18.479  0.3219E+02  0.1020E+03
    -18.465  0.3209E+02  0.1024E+03
    -18.452  0.3199E+02  0.1029E+03
    -18.438  0.3189E+02  0.1033E+03
    -18.424  0.3180E+02  0.1037E+03
    -18.410  0.3173E+02  0.1042E+03
    -18.396  0.3167E+02  0.1046E+03
    -18.382  0.3162E+02  0.1051E+03
    -18.368  0.3159E+02  0.1055E+03
    -18.354  0.3158E+02  0.1059E+03
    -18.341  0.3158E+02  0.1064E+03
    -18.327  0.3159E+02  0.1068E+03
    -18.313  0.3160E+02  0.1073E+03
    -18.299  0.3162E+02  0.1077E+03
    -18.285  0.3164E+02  0.1081E+03
    -18.271  0.3166E+02  0.1086E+03
    -18.257  0.3166E+02  0.1090E+03
    -18.243  0.3166E+02  0.1094E+03
    -18.230  0.3165E+02  0.1099E+03
    -18.216  0.3163E+02  0.1103E+03
    -18.202  0.3159E+02  0.1108E+03
    -18.188  0.3155E+02  0.1112E+03
    -18.174  0.3150E+02  0.1116E+03
    -18.160  0.3144E+02  0.1121E+03
    -18.146  0.3139E+02  0.1125E+03
    -18.132  0.3134E+02  0.1129E+03
    -18.119  0.3130E+02  0.1134E+03
    -18.105  0.3128E+02  0.1138E+03
    -18.091  0.3128E+02  0.1142E+03
    -18.077  0.3130E+02  0.1147E+03
    -18.063  0.3135E+02  0.1151E+03
    -18.049  0.3143E+02  0.1156E+03
    -18.035  0.3154E+02  0.1160E+03
    -18.021  0.3169E+02  0.1164E+03
    -18.007  0.3186E+02  0.1169E+03
    -17.994  0.3206E+02  0.1173E+03
    -17.980  0.3229E+02  0.1178E+03
    -17.966  0.3254E+02  0.1182E+03
    -17.952  0.3280E+02  0.1187E+03
    -17.938  0.3308E+02  0.1191E+03
    -17.924  0.3336E+02  0.1196E+03
    -17.910  0.3364E+02  0.1201E+03
    -17.896  0.3391E+02  0.1205E+03
    -17.883  0.3417E+02  0.1210E+03
    -17.869  0.3441E+02  0.1215E+03
    -17.855  0.3463E+02  0.1220E+03
    -17.841  0.3482E+02  0.1225E+03
    -17.827  0.3498E+02  0.1229E+03
    -17.813  0.3511E+02  0.1234E+03
    -17.799  0.3520E+02  0.1239E+03
    -17.785  0.3527E+02  0.1244E+03
    -17.772  0.3530E+02  0.1249E+03
    -17.758  0.3530E+02  0.1254E+03
    -17.744  0.3527E+02  0.1259E+03
    -17.730  0.3522E+02  0.1264E+03
    -17.716  0.3515E+02  0.1268E+03
    -17.702  0.3506E+02  0.1273E+03
    -17.688  0.3496E+02  0.1278E+03
    -17.674  0.3484E+02  0.1283E+03
    -17.661  0.3471E+02  0.1288E+03
    -17.647  0.3458E+02  0.1293E+03
    -17.633  0.3445E+02  0.1297E+03
    -17.619  0.3431E+02  0.1302E+03
    -17.605  0.3417E+02  0.1307E+03
    -17.591  0.3404E+02  0.1312E+03
    -17.577  0.3390E+02  0.1316E+03
    -17.563  0.3376E+02  0.1321E+03
    -17.549  0.3363E+02  0.1326E+03
    -17.536  0.3350E+02  0.1330E+03
    -17.522  0.3337E+02  0.1335E+03
    -17.508  0.3325E+02  0.1340E+03
    -17.494  0.3313E+02  0.1344E+03
    -17.480  0.3302E+02  0.1349E+03
    -17.466  0.3292E+02  0.1353E+03
    -17.452  0.3282E+02  0.1358E+03
    -17.438  0.3274E+02  0.1362E+03
    -17.425  0.3267E+02  0.1367E+03
    -17.411  0.3261E+02  0.1372E+03
    -17.397  0.3256E+02  0.1376E+03
    -17.383  0.3253E+02  0.1381E+03
    -17.369  0.3250E+02  0.1385E+03
    -17.355  0.3248E+02  0.1390E+03
    -17.341  0.3247E+02  0.1394E+03
    -17.327  0.3246E+02  0.1399E+03
    -17.314  0.3246E+02  0.1403E+03
    -17.300  0.3246E+02  0.1408E+03
    -17.286  0.3245E+02  0.1412E+03
    -17.272  0.3243E+02  0.1417E+03
    -17.258  0.3241E+02  0.1421E+03
    -17.244  0.3237E+02  0.1426E+03
    -17.230  0.3232E+02  0.1430E+03
    -17.216  0.3225E+02  0.1435E+03
    -17.203  0.3215E+02  0.1439E+03
    -17.189  0.3204E+02  0.1443E+03
    -17.175  0.3190E+02  0.1448E+03
    -17.161  0.3174E+02  0.1452E+03
    -17.147  0.3154E+02  0.1457E+03
    -17.133  0.3133E+02  0.1461E+03
    -17.119  0.3108E+02  0.1465E+03
    -17.105  0.3082E+02  0.1470E+03
    -17.091  0.3052E+02  0.1474E+03
    -17.078  0.3021E+02  0.1478E+03
    -17.064  0.2988E+02  0.1482E+03
    -17.050  0.2953E+02  0.1486E+03
    -17.036  0.2917E+02  0.1490E+03
    -17.022  0.2881E+02  0.1494E+03
    -17.008  0.2845E+02  0.1498E+03
    -16.994  0.2809E+02  0.1502E+03
    -16.980  0.2775E+02  0.1506E+03
    -16.967  0.2742E+02  0.1510E+03
    -16.953  0.2712E+02  0.1514E+03
    -16.939  0.2686E+02  0.1517E+03
    -16.925  0.2662E+02  0.1521E+03
    -16.911  0.2643E+02  0.1525E+03
    -16.897  0.2629E+02  0.1528E+03
    -16.883  0.2619E+02  0.1532E+03
    -16.869  0.2615E+02  0.1536E+03
    -16.856  0.2615E+02  0.1539E+03
    -16.842  0.2620E+02  0.1543E+03
    -16.828  0.2630E+02  0.1547E+03
    -16.814  0.2644E+02  0.1550E+03
    -16.800  0.2662E+02  0.1554E+03
    -16.786  0.2683E+02  0.1558E+03
    -16.772  0.2705E+02  0.1561E+03
    -16.758  0.2729E+02  0.1565E+03
    -16.745  0.2754E+02  0.1569E+03
    -16.731  0.2778E+02  0.1573E+03
    -16.717  0.2800E+02  0.1577E+03
    -16.703  0.2820E+02  0.1581E+03
    -16.689  0.2837E+02  0.1585E+03
    -16.675  0.2851E+02  0.1589E+03
    -16.661  0.2860E+02  0.1592E+03
    -16.647  0.2864E+02  0.1596E+03
    -16.634  0.2864E+02  0.1600E+03
    -16.620  0.2858E+02  0.1604E+03
    -16.606  0.2848E+02  0.1608E+03
    -16.592  0.2834E+02  0.1612E+03
    -16.578  0.2816E+02  0.1616E+03
    -16.564  0.2795E+02  0.1620E+03
    -16.550  0.2771E+02  0.1624E+03
    -16.536  0.2746E+02  0.1628E+03
    -16.522  0.2720E+02  0.1631E+03
    -16.509  0.2694E+02  0.1635E+03
    -16.495  0.2669E+02  0.1639E+03
    -16.481  0.2646E+02  0.1643E+03
    -16.467  0.2625E+02  0.1646E+03
    -16.453  0.2606E+02  0.1650E+03
    -16.439  0.2592E+02  0.1653E+03
    -16.425  0.2580E+02  0.1657E+03
    -16.411  0.2573E+02  0.1661E+03
    -16.398  0.2569E+02  0.1664E+03
    -16.384  0.2568E+02  0.1668E+03
    -16.370  0.2571E+02  0.1671E+03
    -16.356  0.2576E+02  0.1675E+03
    -16.342  0.2584E+02  0.1678E+03
    -16.328  0.2593E+02  0.1682E+03
    -16.314  0.2603E+02  0.1686E+03
    -16.300  0.2613E+02  0.1689E+03
    -16.287  0.2623E+02  0.1693E+03
    -16.273  0.2632E+02  0.1697E+03
    -16.259  0.2640E+02  0.1700E+03
    -16.245  0.2647E+02  0.1704E+03
    -16.231  0.2651E+02  0.1708E+03
    -16.217  0.2654E+02  0.1711E+03
    -16.203  0.2654E+02  0.1715E+03
    -16.189  0.2653E+02  0.1719E+03
    -16.176  0.2650E+02  0.1722E+03
    -16.162  0.2645E+02  0.1726E+03
    -16.148  0.2639E+02  0.1730E+03
    -16.134  0.2632E+02  0.1733E+03
    -16.120  0.2624E+02  0.1737E+03
    -16.106  0.2616E+02  0.1741E+03
    -16.092  0.2608E+02  0.1744E+03
    -16.078  0.2600E+02  0.1748E+03
    -16.064  0.2592E+02  0.1751E+03
    -16.051  0.2585E+02  0.1755E+03
    -16.037  0.2579E+02  0.1759E+03
    -16.023  0.2574E+02  0.1762E+03
    -16.009  0.2570E+02  0.1766E+03
    -15.995  0.2566E+02  0.1769E+03
    -15.981  0.2564E+02  0.1773E+03
    -15.967  0.2563E+02  0.1776E+03
    -15.953  0.2563E+02  0.1780E+03
    -15.940  0.2564E+02  0.1784E+03
    -15.926  0.2566E+02  0.1787E+03
    -15.912  0.2569E+02  0.1791E+03
    -15.898  0.2572E+02  0.1794E+03
    -15.884  0.2577E+02  0.1798E+03
    -15.870  0.2582E+02  0.1801E+03
    -15.856  0.2587E+02  0.1805E+03
    -15.842  0.2593E+02  0.1809E+03
    -15.829  0.2599E+02  0.1812E+03
    -15.815  0.2605E+02  0.1816E+03
    -15.801  0.2611E+02  0.1819E+03
    -15.787  0.2617E+02  0.1823E+03
    -15.773  0.2622E+02  0.1827E+03
    -15.759  0.2627E+02  0.1830E+03
    -15.745  0.2631E+02  0.1834E+03
    -15.731  0.2634E+02  0.1838E+03
    -15.718  0.2636E+02  0.1841E+03
    -15.704  0.2638E+02  0.1845E+03
    -15.690  0.2639E+02  0.1849E+03
    -15.676  0.2639E+02  0.1852E+03
    -15.662  0.2640E+02  0.1856E+03
    -15.648  0.2641E+02  0.1860E+03
    -15.634  0.2642E+02  0.1863E+03
    -15.620  0.2644E+02  0.1867E+03
    -15.607  0.2648E+02  0.1871E+03
    -15.593  0.2654E+02  0.1874E+03
    -15.579  0.2663E+02  0.1878E+03
    -15.565  0.2674E+02  0.1882E+03
    -15.551  0.2689E+02  0.1885E+03
    -15.537  0.2708E+02  0.1889E+03
    -15.523  0.2731E+02  0.1893E+03
    -15.509  0.2758E+02  0.1897E+03
    -15.495  0.2789E+02  0.1901E+03
    -15.482  0.2824E+02  0.1905E+03
    -15.468  0.2862E+02  0.1909E+03
    -15.454  0.2904E+02  0.1913E+03
    -15.440  0.2949E+02  0.1917E+03
    -15.426  0.2996E+02  0.1921E+03
    -15.412  0.3044E+02  0.1925E+03
    -15.398  0.3093E+02  0.1929E+03
    -15.384  0.3142E+02  0.1934E+03
    -15.371  0.3189E+02  0.1938E+03
    -15.357  0.3236E+02  0.1943E+03
    -15.343  0.3280E+02  0.1947E+03
    -15.329  0.3322E+02  0.1952E+03
    -15.315  0.3360E+02  0.1956E+03
    -15.301  0.3395E+02  0.1961E+03
    -15.287  0.3426E+02  0.1966E+03
    -15.273  0.3453E+02  0.1971E+03
    -15.260  0.3477E+02  0.1976E+03
    -15.246  0.3497E+02  0.1980E+03
    -15.232  0.3513E+02  0.1985E+03
    -15.218  0.3527E+02  0.1990E+03
    -15.204  0.3538E+02  0.1995E+03
    -15.190  0.3546E+02  0.2000E+03
    -15.176  0.3553E+02  0.2005E+03
    -15.162  0.3557E+02  0.2010E+03
    -15.149  0.3560E+02  0.2015E+03
    -15.135  0.3562E+02  0.2020E+03
    -15.121  0.3562E+02  0.2025E+03
    -15.107  0.3561E+02  0.2030E+03
    -15.093  0.3558E+02  0.2035E+03
    -15.079  0.3555E+02  0.2040E+03
    -15.065  0.3550E+02  0.2044E+03
    -15.051  0.3544E+02  0.2049E+03
    -15.037  0.3537E+02  0.2054E+03
    -15.024  0.3528E+02  0.2059E+03
    -15.010  0.3518E+02  0.2064E+03
    -14.996  0.3507E+02  0.2069E+03
    -14.982  0.3496E+02  0.2074E+03
    -14.968  0.3484E+02  0.2079E+03
    -14.954  0.3472E+02  0.2083E+03
    -14.940  0.3460E+02  0.2088E+03
    -14.926  0.3449E+02  0.2093E+03
    -14.913  0.3439E+02  0.2098E+03
    -14.899  0.3431E+02  0.2103E+03
    -14.885  0.3424E+02  0.2107E+03
    -14.871  0.3419E+02  0.2112E+03
    -14.857  0.3416E+02  0.2117E+03
    -14.843  0.3415E+02  0.2122E+03
    -14.829  0.3416E+02  0.2126E+03
    -14.815  0.3419E+02  0.2131E+03
    -14.802  0.3423E+02  0.2136E+03
    -14.788  0.3429E+02  0.2141E+03
    -14.774  0.3435E+02  0.2145E+03
    -14.760  0.3442E+02  0.2150E+03
    -14.746  0.3449E+02  0.2155E+03
    -14.732  0.3455E+02  0.2160E+03
    -14.718  0.3459E+02  0.2164E+03
    -14.704  0.3463E+02  0.2169E+03
    -14.691  0.3464E+02  0.2174E+03
    -14.677  0.3463E+02  0.2179E+03
    -14.663  0.3460E+02  0.2184E+03
    -14.649  0.3455E+02  0.2188E+03
    -14.635  0.3448E+02  0.2193E+03
    -14.621  0.3438E+02  0.2198E+03
    -14.607  0.3427E+02  0.2203E+03
    -14.593  0.3415E+02  0.2208E+03
    -14.580  0.3401E+02  0.2212E+03
    -14.566  0.3387E+02  0.2217E+03
    -14.552  0.3372E+02  0.2222E+03
    -14.538  0.3357E+02  0.2226E+03
    -14.524  0.3342E+02  0.2231E+03
    -14.510  0.3328E+02  0.2236E+03
    -14.496  0.3315E+02  0.2240E+03
    -14.482  0.3302E+02  0.2245E+03
    -14.468  0.3290E+02  0.2249E+03
    -14.455  0.3278E+02  0.2254E+03
    -14.441  0.3267E+02  0.2258E+03
    -14.427  0.3257E+02  0.2263E+03
    -14.413  0.3246E+02  0.2267E+03
    -14.399  0.3236E+02  0.2272E+03
    -14.385  0.3225E+02  0.2276E+03
    -14.371  0.3214E+02  0.2281E+03
    -14.357  0.3202E+02  0.2285E+03
    -14.344  0.3189E+02  0.2290E+03
    -14.330  0.3174E+02  0.2294E+03
    -14.316  0.3159E+02  0.2298E+03
    -14.302  0.3142E+02  0.2303E+03
    -14.288  0.3124E+02  0.2307E+03
    -14.274  0.3106E+02  0.2312E+03
    -14.260  0.3086E+02  0.2316E+03
    -14.246  0.3065E+02  0.2320E+03
    -14.233  0.3044E+02  0.2324E+03
    -14.219  0.3023E+02  0.2328E+03
    -14.205  0.3002E+02  0.2333E+03
    -14.191  0.2982E+02  0.2337E+03
    -14.177  0.2963E+02  0.2341E+03
    -14.163  0.2945E+02  0.2345E+03
    -14.149  0.2929E+02  0.2349E+03
    -14.135  0.2916E+02  0.2353E+03
    -14.122  0.2906E+02  0.2357E+03
    -14.108  0.2898E+02  0.2361E+03
    -14.094  0.2894E+02  0.2365E+03
    -14.080  0.2893E+02  0.2369E+03
    -14.066  0.2895E+02  0.2373E+03
    -14.052  0.2900E+02  0.2377E+03
    -14.038  0.2908E+02  0.2381E+03
    -14.024  0.2918E+02  0.2385E+03
    -14.010  0.2930E+02  0.2389E+03
    -13.997  0.2944E+02  0.2393E+03
    -13.983  0.2958E+02  0.2398E+03
    -13.969  0.2972E+02  0.2402E+03
    -13.955  0.2986E+02  0.2406E+03
    -13.941  0.2998E+02  0.2410E+03
    -13.927  0.3009E+02  0.2414E+03
    -13.913  0.3018E+02  0.2418E+03
    -13.899  0.3024E+02  0.2423E+03
    -13.886  0.3027E+02  0.2427E+03
    -13.872  0.3028E+02  0.2431E+03
    -13.858  0.3026E+02  0.2435E+03
    -13.844  0.3022E+02  0.2439E+03
    -13.830  0.3016E+02  0.2444E+03
    -13.816  0.3008E+02  0.2448E+03
    -13.802  0.3000E+02  0.2452E+03
    -13.788  0.2992E+02  0.2456E+03
    -13.775  0.2984E+02  0.2460E+03
    -13.761  0.2978E+02  0.2464E+03
    -13.747  0.2973E+02  0.2468E+03
    -13.733  0.2971E+02  0.2473E+03
    -13.719  0.2972E+02  0.2477E+03
    -13.705  0.2976E+02  0.2481E+03
    -13.691  0.2983E+02  0.2485E+03
    -13.677  0.2994E+02  0.2489E+03
    -13.664  0.3009E+02  0.2493E+03
    -13.650  0.3027E+02  0.2497E+03
    -13.636  0.3048E+02  0.2502E+03
    -13.622  0.3071E+02  0.2506E+03
    -13.608  0.3097E+02  0.2510E+03
    -13.594  0.3125E+02  0.2515E+03
    -13.580  0.3154E+02  0.2519E+03
    -13.566  0.3183E+02  0.2523E+03
    -13.553  0.3212E+02  0.2528E+03
    -13.539  0.3241E+02  0.2532E+03
    -13.525  0.3268E+02  0.2537E+03
    -13.511  0.3293E+02  0.2541E+03
    -13.497  0.3316E+02  0.2546E+03
    -13.483  0.3336E+02  0.2551E+03
    -13.469  0.3353E+02  0.2555E+03
    -13.455  0.3366E+02  0.2560E+03
    -13.441  0.3376E+02  0.2565E+03
    -13.428  0.3381E+02  0.2569E+03
    -13.414  0.3383E+02  0.2574E+03
    -13.400  0.3380E+02  0.2579E+03
    -13.386  0.3374E+02  0.2583E+03
    -13.372  0.3363E+02  0.2588E+03
    -13.358  0.3349E+02  0.2593E+03
    -13.344  0.3331E+02  0.2597E+03
    -13.330  0.3310E+02  0.2602E+03
    -13.317  0.3285E+02  0.2607E+03
    -13.303  0.3258E+02  0.2611E+03
    -13.289  0.3228E+02  0.2616E+03
    -13.275  0.3197E+02  0.2620E+03
    -13.261  0.3164E+02  0.2624E+03
    -13.247  0.3131E+02  0.2629E+03
    -13.233  0.3098E+02  0.2633E+03
    -13.219  0.3065E+02  0.2637E+03
    -13.206  0.3034E+02  0.2641E+03
    -13.192  0.3006E+02  0.2646E+03
    -13.178  0.2980E+02  0.2650E+03
    -13.164  0.2958E+02  0.2654E+03
    -13.150  0.2940E+02  0.2658E+03
    -13.136  0.2927E+02  0.2662E+03
    -13.122  0.2918E+02  0.2666E+03
    -13.108  0.2915E+02  0.2670E+03
    -13.095  0.2918E+02  0.2674E+03
    -13.081  0.2925E+02  0.2678E+03
    -13.067  0.2937E+02  0.2682E+03
    -13.053  0.2953E+02  0.2686E+03
    -13.039  0.2973E+02  0.2691E+03
    -13.025  0.2997E+02  0.2695E+03
    -13.011  0.3022E+02  0.2699E+03
    -12.997  0.3049E+02  0.2703E+03