 112 112   0   0
  0.4752918E+02  0.2840361E-08  0.9370761E-09  0.2000000E-08  0.5000000E-15
  1.000000000000000E-004
  CAR 
 unknown system                          
      4.04292189    -23.97650919 2000     -3.41790972      1.00000000
    -23.977  0.0000E+00  0.0000E+00
    -23.962  0.0000E+00  0.0000E+00
    -23.948  0.0000E+00  0.0000E+00
    -23.934  0.0000E+00  0.0000E+00
    -23.920  0.0000E+00  0.0000E+00
    -23.906  0.0000E+00  0.0000E+00
    -23.892  0.0000E+00  0.0000E+00
    -23.878  0.0000E+00  0.0000E+00
    -23.864  0.0000E+00  0.0000E+00
    -23.850  0.0000E+00  0.0000E+00
    -23.836  0.0000E+00  0.0000E+00
    -23.822  0.0000E+00  0.0000E+00
    -23.808  0.0000E+00  0.0000E+00
    -23.794  0.0000E+00  0.0000E+00
    -23.780  0.0000E+00  0.0000E+00
    -23.766  0.0000E+00  0.0000E+00
    -23.752  0.0000E+00  0.0000E+00
    -23.738  0.0000E+00  0.0000E+00
    -23.724  0.0000E+00  0.0000E+00
    -23.710  0.0000E+00  0.0000E+00
    -23.696  0.0000E+00  0.0000E+00
    -23.682  0.0000E+00  0.0000E+00
    -23.668  0.0000E+00  0.0000E+00
    -23.654  0.0000E+00  0.0000E+00
    -23.640  0.0000E+00  0.0000E+00
    -23.626  0.0000E+00  0.0000E+00
    -23.612  0.0000E+00  0.0000E+00
    -23.598  0.0000E+00  0.0000E+00
    -23.584  0.0000E+00  0.0000E+00
    -23.570  0.0000E+00  0.0000E+00
    -23.556  0.0000E+00  0.0000E+00
    -23.542  0.0000E+00  0.0000E+00
    -23.528  0.0000E+00  0.0000E+00
    -23.514  0.0000E+00  0.0000E+00
    -23.500  0.0000E+00  0.0000E+00
    -23.486  0.0000E+00  0.0000E+00
    -23.472  0.0000E+00  0.0000E+00
    -23.458  0.0000E+00  0.0000E+00
    -23.444  0.0000E+00  0.0000E+00
    -23.430  0.0000E+00  0.0000E+00
    -23.416  0.0000E+00  0.0000E+00
    -23.402  0.0000E+00  0.0000E+00
    -23.388  0.0000E+00  0.0000E+00
    -23.374  0.0000E+00  0.0000E+00
    -23.360  0.0000E+00  0.0000E+00
    -23.346  0.0000E+00  0.0000E+00
    -23.332  0.0000E+00  0.0000E+00
    -23.318  0.0000E+00  0.0000E+00
    -23.304  0.0000E+00  0.0000E+00
    -23.290  0.0000E+00  0.0000E+00
    -23.276  0.0000E+00  0.0000E+00
    -23.262  0.0000E+00  0.0000E+00
    -23.248  0.0000E+00  0.0000E+00
    -23.234  0.0000E+00  0.0000E+00
    -23.220  0.0000E+00  0.0000E+00
    -23.206  0.0000E+00  0.0000E+00
    -23.192  0.0000E+00  0.0000E+00
    -23.178  0.0000E+00  0.0000E+00
    -23.164  0.0000E+00  0.0000E+00
    -23.150  0.2640E-14  0.3701E-16
    -23.136  0.2640E-14  0.7401E-16
    -23.121  0.6161E-14  0.1604E-15
    -23.107  0.1760E-13  0.4071E-15
    -23.093  0.3520E-13  0.9005E-15
    -23.079  0.7657E-13  0.1974E-14
    -23.065  0.1699E-12  0.4355E-14
    -23.051  0.3652E-12  0.9474E-14
    -23.037  0.7727E-12  0.2030E-13
    -23.023  0.1637E-11  0.4325E-13
    -23.009  0.3422E-11  0.9121E-13
    -22.995  0.7077E-11  0.1904E-12
    -22.981  0.1451E-10  0.3937E-12
    -22.967  0.2944E-10  0.8064E-12
    -22.953  0.5919E-10  0.1636E-11
    -22.939  0.1178E-09  0.3287E-11
    -22.925  0.2323E-09  0.6544E-11
    -22.911  0.4537E-09  0.1290E-10
    -22.897  0.8774E-09  0.2520E-10
    -22.883  0.1681E-08  0.4876E-10
    -22.869  0.3188E-08  0.9345E-10
    -22.855  0.5991E-08  0.1774E-09
    -22.841  0.1115E-07  0.3337E-09
    -22.827  0.2055E-07  0.6217E-09
    -22.813  0.3752E-07  0.1148E-08
    -22.799  0.6784E-07  0.2099E-08
    -22.785  0.1215E-06  0.3802E-08
    -22.771  0.2155E-06  0.6823E-08
    -22.757  0.3787E-06  0.1213E-07
    -22.743  0.6592E-06  0.2137E-07
    -22.729  0.1136E-05  0.3730E-07
    -22.715  0.1941E-05  0.6450E-07
    -22.701  0.3283E-05  0.1105E-06
    -22.687  0.5501E-05  0.1876E-06
    -22.673  0.9132E-05  0.3156E-06
    -22.659  0.1502E-04  0.5261E-06
    -22.645  0.2446E-04  0.8690E-06
    -22.631  0.3948E-04  0.1422E-05
    -22.617  0.6311E-04  0.2307E-05
    -22.603  0.9997E-04  0.3708E-05
    -22.589  0.1569E-03  0.5907E-05
    -22.575  0.2439E-03  0.9326E-05
    -22.561  0.3757E-03  0.1459E-04
    -22.547  0.5734E-03  0.2263E-04
    -22.533  0.8672E-03  0.3478E-04
    -22.519  0.1299E-02  0.5300E-04
    -22.505  0.1929E-02  0.8004E-04
    -22.491  0.2839E-02  0.1198E-03
    -22.477  0.4140E-02  0.1779E-03
    -22.463  0.5982E-02  0.2617E-03
    -22.449  0.8566E-02  0.3818E-03
    -22.435  0.1216E-01  0.5522E-03
    -22.421  0.1710E-01  0.7919E-03
    -22.407  0.2384E-01  0.1126E-02
    -22.393  0.3295E-01  0.1588E-02
    -22.379  0.4513E-01  0.2221E-02
    -22.365  0.6129E-01  0.3080E-02
    -22.351  0.8250E-01  0.4236E-02
    -22.337  0.1101E+00  0.5779E-02
    -22.323  0.1457E+00  0.7821E-02
    -22.309  0.1911E+00  0.1050E-01
    -22.295  0.2485E+00  0.1398E-01
    -22.280  0.3204E+00  0.1847E-01
    -22.266  0.4097E+00  0.2422E-01
    -22.252  0.5195E+00  0.3150E-01
    -22.238  0.6532E+00  0.4065E-01
    -22.224  0.8145E+00  0.5207E-01
    -22.210  0.1007E+01  0.6619E-01
    -22.196  0.1235E+01  0.8351E-01
    -22.182  0.1503E+01  0.1046E+00
    -22.168  0.1814E+01  0.1300E+00
    -22.154  0.2171E+01  0.1604E+00
    -22.140  0.2577E+01  0.1965E+00
    -22.126  0.3035E+01  0.2391E+00
    -22.112  0.3546E+01  0.2888E+00
    -22.098  0.4110E+01  0.3464E+00
    -22.084  0.4725E+01  0.4126E+00
    -22.070  0.5391E+01  0.4882E+00
    -22.056  0.6101E+01  0.5737E+00
    -22.042  0.6851E+01  0.6697E+00
    -22.028  0.7634E+01  0.7767E+00
    -22.014  0.8440E+01  0.8950E+00
    -22.000  0.9259E+01  0.1025E+01
    -21.986  0.1008E+02  0.1166E+01
    -21.972  0.1089E+02  0.1319E+01
    -21.958  0.1167E+02  0.1482E+01
    -21.944  0.1242E+02  0.1656E+01
    -21.930  0.1312E+02  0.1840E+01
    -21.916  0.1375E+02  0.2033E+01
    -21.902  0.1432E+02  0.2234E+01
    -21.888  0.1479E+02  0.2441E+01
    -21.874  0.1518E+02  0.2654E+01
    -21.860  0.1548E+02  0.2871E+01
    -21.846  0.1567E+02  0.3091E+01
    -21.832  0.1578E+02  0.3312E+01
    -21.818  0.1579E+02  0.3533E+01
    -21.804  0.1571E+02  0.3753E+01
    -21.790  0.1556E+02  0.3971E+01
    -21.776  0.1535E+02  0.4187E+01
    -21.762  0.1509E+02  0.4398E+01
    -21.748  0.1479E+02  0.4605E+01
    -21.734  0.1448E+02  0.4808E+01
    -21.720  0.1416E+02  0.5007E+01
    -21.706  0.1385E+02  0.5201E+01
    -21.692  0.1357E+02  0.5391E+01
    -21.678  0.1334E+02  0.5578E+01
    -21.664  0.1315E+02  0.5762E+01
    -21.650  0.1301E+02  0.5945E+01
    -21.636  0.1295E+02  0.6126E+01
    -21.622  0.1294E+02  0.6308E+01
    -21.608  0.1300E+02  0.6490E+01
    -21.594  0.1313E+02  0.6674E+01
    -21.580  0.1331E+02  0.6861E+01
    -21.566  0.1353E+02  0.7050E+01
    -21.552  0.1380E+02  0.7244E+01
    -21.538  0.1409E+02  0.7441E+01
    -21.524  0.1440E+02  0.7643E+01
    -21.510  0.1471E+02  0.7849E+01
    -21.496  0.1501E+02  0.8060E+01
    -21.482  0.1529E+02  0.8274E+01
    -21.468  0.1555E+02  0.8492E+01
    -21.453  0.1576E+02  0.8713E+01
    -21.439  0.1593E+02  0.8936E+01
    -21.425  0.1606E+02  0.9161E+01
    -21.411  0.1613E+02  0.9387E+01
    -21.397  0.1616E+02  0.9614E+01
    -21.383  0.1613E+02  0.9840E+01
    -21.369  0.1606E+02  0.1007E+02
    -21.355  0.1595E+02  0.1029E+02
    -21.341  0.1580E+02  0.1051E+02
    -21.327  0.1563E+02  0.1073E+02
    -21.313  0.1543E+02  0.1095E+02
    -21.299  0.1522E+02  0.1116E+02
    -21.285  0.1501E+02  0.1137E+02
    -21.271  0.1480E+02  0.1158E+02
    -21.257  0.1460E+02  0.1178E+02
    -21.243  0.1441E+02  0.1198E+02
    -21.229  0.1425E+02  0.1218E+02
    -21.215  0.1411E+02  0.1238E+02
    -21.201  0.1399E+02  0.1258E+02
    -21.187  0.1391E+02  0.1277E+02
    -21.173  0.1386E+02  0.1297E+02
    -21.159  0.1385E+02  0.1316E+02
    -21.145  0.1387E+02  0.1335E+02
    -21.131  0.1392E+02  0.1355E+02
    -21.117  0.1401E+02  0.1375E+02
    -21.103  0.1414E+02  0.1394E+02
    -21.089  0.1429E+02  0.1414E+02
    -21.075  0.1448E+02  0.1435E+02
    -21.061  0.1471E+02  0.1455E+02
    -21.047  0.1496E+02  0.1476E+02
    -21.033  0.1524E+02  0.1498E+02
    -21.019  0.1554E+02  0.1519E+02
    -21.005  0.1587E+02  0.1542E+02
    -20.991  0.1622E+02  0.1564E+02
    -20.977  0.1658E+02  0.1588E+02
    -20.963  0.1696E+02  0.1611E+02
    -20.949  0.1734E+02  0.1636E+02
    -20.935  0.1773E+02  0.1661E+02
    -20.921  0.1811E+02  0.1686E+02
    -20.907  0.1849E+02  0.1712E+02
    -20.893  0.1884E+02  0.1738E+02
    -20.879  0.1918E+02  0.1765E+02
    -20.865  0.1948E+02  0.1793E+02
    -20.851  0.1975E+02  0.1820E+02
    -20.837  0.1998E+02  0.1848E+02
    -20.823  0.2016E+02  0.1876E+02
    -20.809  0.2028E+02  0.1905E+02
    -20.795  0.2035E+02  0.1933E+02
    -20.781  0.2036E+02  0.1962E+02
    -20.767  0.2031E+02  0.1990E+02
    -20.753  0.2019E+02  0.2019E+02
    -20.739  0.2003E+02  0.2047E+02
    -20.725  0.1980E+02  0.2075E+02
    -20.711  0.1953E+02  0.2102E+02
    -20.697  0.1922E+02  0.2129E+02
    -20.683  0.1887E+02  0.2155E+02
    -20.669  0.1849E+02  0.2181E+02
    -20.655  0.1810E+02  0.2207E+02
    -20.641  0.1769E+02  0.2231E+02
    -20.627  0.1730E+02  0.2256E+02
    -20.612  0.1691E+02  0.2279E+02
    -20.598  0.1654E+02  0.2303E+02
    -20.584  0.1621E+02  0.2325E+02
    -20.570  0.1591E+02  0.2348E+02
    -20.556  0.1565E+02  0.2369E+02
    -20.542  0.1545E+02  0.2391E+02
    -20.528  0.1529E+02  0.2413E+02
    -20.514  0.1519E+02  0.2434E+02
    -20.500  0.1513E+02  0.2455E+02
    -20.486  0.1513E+02  0.2476E+02
    -20.472  0.1517E+02  0.2498E+02
    -20.458  0.1526E+02  0.2519E+02
    -20.444  0.1537E+02  0.2540E+02
    -20.430  0.1551E+02  0.2562E+02
    -20.416  0.1567E+02  0.2584E+02
    -20.402  0.1585E+02  0.2606E+02
    -20.388  0.1602E+02  0.2629E+02
    -20.374  0.1619E+02  0.2652E+02
    -20.360  0.1635E+02  0.2674E+02
    -20.346  0.1649E+02  0.2698E+02
    -20.332  0.1661E+02  0.2721E+02
    -20.318  0.1671E+02  0.2744E+02
    -20.304  0.1679E+02  0.2768E+02
    -20.290  0.1684E+02  0.2791E+02
    -20.276  0.1686E+02  0.2815E+02
    -20.262  0.1687E+02  0.2839E+02
    -20.248  0.1686E+02  0.2862E+02
    -20.234  0.1683E+02  0.2886E+02
    -20.220  0.1680E+02  0.2909E+02
    -20.206  0.1677E+02  0.2933E+02
    -20.192  0.1675E+02  0.2956E+02
    -20.178  0.1674E+02  0.2980E+02
    -20.164  0.1674E+02  0.3003E+02
    -20.150  0.1677E+02  0.3027E+02
    -20.136  0.1683E+02  0.3050E+02
    -20.122  0.1691E+02  0.3074E+02
    -20.108  0.1703E+02  0.3098E+02
    -20.094  0.1719E+02  0.3122E+02
    -20.080  0.1738E+02  0.3147E+02
    -20.066  0.1761E+02  0.3171E+02
    -20.052  0.1786E+02  0.3196E+02
    -20.038  0.1814E+02  0.3222E+02
    -20.024  0.1844E+02  0.3248E+02
    -20.010  0.1876E+02  0.3274E+02
    -19.996  0.1908E+02  0.3301E+02
    -19.982  0.1941E+02  0.3328E+02
    -19.968  0.1972E+02  0.3355E+02
    -19.954  0.2002E+02  0.3383E+02
    -19.940  0.2029E+02  0.3412E+02
    -19.926  0.2054E+02  0.3441E+02
    -19.912  0.2075E+02  0.3470E+02
    -19.898  0.2091E+02  0.3499E+02
    -19.884  0.2103E+02  0.3529E+02
    -19.870  0.2110E+02  0.3558E+02
    -19.856  0.2113E+02  0.3588E+02
    -19.842  0.2111E+02  0.3617E+02
    -19.828  0.2105E+02  0.3647E+02
    -19.814  0.2094E+02  0.3676E+02
    -19.800  0.2080E+02  0.3705E+02
    -19.786  0.2063E+02  0.3734E+02
    -19.771  0.2044E+02  0.3763E+02
    -19.757  0.2023E+02  0.3791E+02
    -19.743  0.2001E+02  0.3819E+02
    -19.729  0.1979E+02  0.3847E+02
    -19.715  0.1958E+02  0.3875E+02
    -19.701  0.1937E+02  0.3902E+02
    -19.687  0.1918E+02  0.3929E+02
    -19.673  0.1901E+02  0.3955E+02
    -19.659  0.1886E+02  0.3982E+02
    -19.645  0.1874E+02  0.4008E+02
    -19.631  0.1865E+02  0.4034E+02
    -19.617  0.1859E+02  0.4060E+02
    -19.603  0.1856E+02  0.4086E+02
    -19.589  0.1856E+02  0.4112E+02
    -19.575  0.1858E+02  0.4138E+02
    -19.561  0.1863E+02  0.4164E+02
    -19.547  0.1870E+02  0.4190E+02
    -19.533  0.1878E+02  0.4217E+02
    -19.519  0.1888E+02  0.4243E+02
    -19.505  0.1898E+02  0.4270E+02
    -19.491  0.1909E+02  0.4297E+02
    -19.477  0.1919E+02  0.4324E+02
    -19.463  0.1929E+02  0.4351E+02
    -19.449  0.1937E+02  0.4378E+02
    -19.435  0.1945E+02  0.4405E+02
    -19.421  0.1951E+02  0.4432E+02
    -19.407  0.1954E+02  0.4460E+02
    -19.393  0.1957E+02  0.4487E+02
    -19.379  0.1957E+02  0.4515E+02
    -19.365  0.1955E+02  0.4542E+02
    -19.351  0.1952E+02  0.4569E+02
    -19.337  0.1947E+02  0.4597E+02
    -19.323  0.1940E+02  0.4624E+02
    -19.309  0.1933E+02  0.4651E+02
    -19.295  0.1925E+02  0.4678E+02
    -19.281  0.1916E+02  0.4705E+02
    -19.267  0.1906E+02  0.4731E+02
    -19.253  0.1897E+02  0.4758E+02
    -19.239  0.1888E+02  0.4784E+02
    -19.225  0.1878E+02  0.4811E+02
    -19.211  0.1870E+02  0.4837E+02
    -19.197  0.1861E+02  0.4863E+02
    -19.183  0.1853E+02  0.4889E+02
    -19.169  0.1846E+02  0.4915E+02
    -19.155  0.1840E+02  0.4941E+02
    -19.141  0.1834E+02  0.4966E+02
    -19.127  0.1829E+02  0.4992E+02
    -19.113  0.1824E+02  0.5018E+02
    -19.099  0.1821E+02  0.5043E+02
    -19.085  0.1818E+02  0.5069E+02
    -19.071  0.1815E+02  0.5094E+02
    -19.057  0.1814E+02  0.5120E+02
    -19.043  0.1813E+02  0.5145E+02
    -19.029  0.1812E+02  0.5170E+02
    -19.015  0.1812E+02  0.5196E+02
    -19.001  0.1812E+02  0.5221E+02
    -18.987  0.1813E+02  0.5247E+02
    -18.973  0.1813E+02  0.5272E+02
    -18.959  0.1813E+02  0.5297E+02
    -18.945  0.1813E+02  0.5323E+02
    -18.930  0.1812E+02  0.5348E+02
    -18.916  0.1811E+02  0.5374E+02
    -18.902  0.1809E+02  0.5399E+02
    -18.888  0.1806E+02  0.5424E+02
    -18.874  0.1803E+02  0.5450E+02
    -18.860  0.1799E+02  0.5475E+02
    -18.846  0.1794E+02  0.5500E+02
    -18.832  0.1789E+02  0.5525E+02
    -18.818  0.1784E+02  0.5550E+02
    -18.804  0.1778E+02  0.5575E+02
    -18.790  0.1773E+02  0.5600E+02
    -18.776  0.1767E+02  0.5625E+02
    -18.762  0.1762E+02  0.5649E+02
    -18.748  0.1757E+02  0.5674E+02
    -18.734  0.1752E+02  0.5698E+02
    -18.720  0.1748E+02  0.5723E+02
    -18.706  0.1744E+02  0.5747E+02
    -18.692  0.1739E+02  0.5772E+02
    -18.678  0.1735E+02  0.5796E+02
    -18.664  0.1731E+02  0.5820E+02
    -18.650  0.1727E+02  0.5844E+02
    -18.636  0.1722E+02  0.5869E+02
    -18.622  0.1717E+02  0.5893E+02
    -18.608  0.1712E+02  0.5917E+02
    -18.594  0.1706E+02  0.5941E+02
    -18.580  0.1700E+02  0.5964E+02
    -18.566  0.1693E+02  0.5988E+02
    -18.552  0.1686E+02  0.6012E+02
    -18.538  0.1678E+02  0.6035E+02
    -18.524  0.1671E+02  0.6059E+02
    -18.510  0.1663E+02  0.6082E+02
    -18.496  0.1655E+02  0.6105E+02
    -18.482  0.1647E+02  0.6128E+02
    -18.468  0.1640E+02  0.6151E+02
    -18.454  0.1633E+02  0.6174E+02
    -18.440  0.1627E+02  0.6197E+02
    -18.426  0.1622E+02  0.6220E+02
    -18.412  0.1618E+02  0.6242E+02
    -18.398  0.1615E+02  0.6265E+02
    -18.384  0.1614E+02  0.6288E+02
    -18.370  0.1615E+02  0.6310E+02
    -18.356  0.1617E+02  0.6333E+02
    -18.342  0.1622E+02  0.6356E+02
    -18.328  0.1628E+02  0.6379E+02
    -18.314  0.1637E+02  0.6401E+02
    -18.300  0.1647E+02  0.6425E+02
    -18.286  0.1659E+02  0.6448E+02
    -18.272  0.1673E+02  0.6471E+02
    -18.258  0.1687E+02  0.6495E+02
    -18.244  0.1702E+02  0.6519E+02
    -18.230  0.1718E+02  0.6543E+02
    -18.216  0.1734E+02  0.6567E+02
    -18.202  0.1749E+02  0.6592E+02
    -18.188  0.1764E+02  0.6616E+02
    -18.174  0.1778E+02  0.6641E+02
    -18.160  0.1791E+02  0.6666E+02
    -18.146  0.1802E+02  0.6692E+02
    -18.132  0.1813E+02  0.6717E+02
    -18.118  0.1821E+02  0.6743E+02
    -18.104  0.1829E+02  0.6768E+02
    -18.089  0.1836E+02  0.6794E+02
    -18.075  0.1843E+02  0.6820E+02
    -18.061  0.1849E+02  0.6846E+02
    -18.047  0.1855E+02  0.6872E+02
    -18.033  0.1862E+02  0.6898E+02
    -18.019  0.1870E+02  0.6924E+02
    -18.005  0.1879E+02  0.6950E+02
    -17.991  0.1890E+02  0.6977E+02
    -17.977  0.1902E+02  0.7004E+02
    -17.963  0.1916E+02  0.7030E+02
    -17.949  0.1931E+02  0.7057E+02
    -17.935  0.1948E+02  0.7085E+02
    -17.921  0.1966E+02  0.7112E+02
    -17.907  0.1984E+02  0.7140E+02
    -17.893  0.2004E+02  0.7168E+02
    -17.879  0.2022E+02  0.7197E+02
    -17.865  0.2041E+02  0.7225E+02
    -17.851  0.2057E+02  0.7254E+02
    -17.837  0.2072E+02  0.7283E+02
    -17.823  0.2085E+02  0.7312E+02
    -17.809  0.2094E+02  0.7342E+02
    -17.795  0.2099E+02  0.7371E+02
    -17.781  0.2101E+02  0.7401E+02
    -17.767  0.2098E+02  0.7430E+02
    -17.753  0.2091E+02  0.7459E+02
    -17.739  0.2079E+02  0.7488E+02
    -17.725  0.2063E+02  0.7517E+02
    -17.711  0.2042E+02  0.7546E+02
    -17.697  0.2017E+02  0.7574E+02
    -17.683  0.1989E+02  0.7602E+02
    -17.669  0.1957E+02  0.7630E+02
    -17.655  0.1923E+02  0.7656E+02
    -17.641  0.1888E+02  0.7683E+02
    -17.627  0.1851E+02  0.7709E+02
    -17.613  0.1814E+02  0.7734E+02
    -17.599  0.1778E+02  0.7759E+02
    -17.585  0.1744E+02  0.7784E+02
    -17.571  0.1711E+02  0.7808E+02
    -17.557  0.1682E+02  0.7831E+02
    -17.543  0.1656E+02  0.7854E+02
    -17.529  0.1633E+02  0.7877E+02
    -17.515  0.1615E+02  0.7900E+02
    -17.501  0.1600E+02  0.7922E+02
    -17.487  0.1590E+02  0.7945E+02
    -17.473  0.1585E+02  0.7967E+02
    -17.459  0.1583E+02  0.7989E+02
    -17.445  0.1584E+02  0.8011E+02
    -17.431  0.1590E+02  0.8034E+02
    -17.417  0.1598E+02  0.8056E+02
    -17.403  0.1609E+02  0.8079E+02
    -17.389  0.1622E+02  0.8101E+02
    -17.375  0.1637E+02  0.8124E+02
    -17.361  0.1653E+02  0.8147E+02
    -17.347  0.1670E+02  0.8171E+02
    -17.333  0.1689E+02  0.8194E+02
    -17.319  0.1707E+02  0.8218E+02
    -17.305  0.1726E+02  0.8243E+02
    -17.291  0.1745E+02  0.8267E+02
    -17.277  0.1764E+02  0.8292E+02
    -17.262  0.1782E+02  0.8317E+02
    -17.248  0.1800E+02  0.8342E+02
    -17.234  0.1817E+02  0.8367E+02
    -17.220  0.1833E+02  0.8393E+02
    -17.206  0.1847E+02  0.8419E+02
    -17.192  0.1861E+02  0.8445E+02
    -17.178  0.1873E+02  0.8471E+02
    -17.164  0.1883E+02  0.8498E+02
    -17.150  0.1892E+02  0.8524E+02
    -17.136  0.1898E+02  0.8551E+02
    -17.122  0.1902E+02  0.8578E+02
    -17.108  0.1903E+02  0.8604E+02
    -17.094  0.1902E+02  0.8631E+02
    -17.080  0.1899E+02  0.8657E+02
    -17.066  0.1892E+02  0.8684E+02
    -17.052  0.1883E+02  0.8710E+02
    -17.038  0.1872E+02  0.8737E+02
    -17.024  0.1858E+02  0.8763E+02
    -17.010  0.1842E+02  0.8788E+02
    -16.996  0.1824E+02  0.8814E+02
    -16.982  0.1804E+02  0.8839E+02
    -16.968  0.1783E+02  0.8864E+02
    -16.954  0.1761E+02  0.8889E+02
    -16.940  0.1738E+02  0.8913E+02
    -16.926  0.1715E+02  0.8937E+02
    -16.912  0.1692E+02  0.8961E+02
    -16.898  0.1671E+02  0.8985E+02
    -16.884  0.1650E+02  0.9008E+02
    -16.870  0.1631E+02  0.9031E+02
    -16.856  0.1614E+02  0.9053E+02
    -16.842  0.1599E+02  0.9076E+02
    -16.828  0.1586E+02  0.9098E+02
    -16.814  0.1577E+02  0.9120E+02
    -16.800  0.1570E+02  0.9142E+02
    -16.786  0.1566E+02  0.9164E+02
    -16.772  0.1565E+02  0.9186E+02
    -16.758  0.1568E+02  0.9208E+02
    -16.744  0.1573E+02  0.9230E+02
    -16.730  0.1582E+02  0.9252E+02
    -16.716  0.1593E+02  0.9274E+02
    -16.702  0.1607E+02  0.9297E+02
    -16.688  0.1624E+02  0.9320E+02
    -16.674  0.1644E+02  0.9343E+02
    -16.660  0.1666E+02  0.9366E+02
    -16.646  0.1690E+02  0.9390E+02
    -16.632  0.1716E+02  0.9414E+02
    -16.618  0.1744E+02  0.9438E+02
    -16.604  0.1774E+02  0.9463E+02
    -16.590  0.1805E+02  0.9488E+02
    -16.576  0.1836E+02  0.9514E+02
    -16.562  0.1869E+02  0.9540E+02
    -16.548  0.1901E+02  0.9567E+02
    -16.534  0.1934E+02  0.9594E+02
    -16.520  0.1966E+02  0.9622E+02
    -16.506  0.1997E+02  0.9650E+02
    -16.492  0.2026E+02  0.9678E+02
    -16.478  0.2054E+02  0.9707E+02
    -16.464  0.2080E+02  0.9736E+02
    -16.450  0.2103E+02  0.9765E+02
    -16.436  0.2123E+02  0.9795E+02
    -16.421  0.2141E+02  0.9825E+02
    -16.407  0.2155E+02  0.9855E+02
    -16.393  0.2167E+02  0.9886E+02
    -16.379  0.2175E+02  0.9916E+02
    -16.365  0.2180E+02  0.9947E+02
    -16.351  0.2183E+02  0.9977E+02
    -16.337  0.2182E+02  0.1001E+03
    -16.323  0.2180E+02  0.1004E+03
    -16.309  0.2175E+02  0.1007E+03
    -16.295  0.2168E+02  0.1010E+03
    -16.281  0.2160E+02  0.1013E+03
    -16.267  0.2151E+02  0.1016E+03
    -16.253  0.2141E+02  0.1019E+03
    -16.239  0.2130E+02  0.1022E+03
    -16.225  0.2119E+02  0.1025E+03
    -16.211  0.2107E+02  0.1028E+03
    -16.197  0.2095E+02  0.1031E+03
    -16.183  0.2083E+02  0.1034E+03
    -16.169  0.2071E+02  0.1037E+03
    -16.155  0.2058E+02  0.1040E+03
    -16.141  0.2044E+02  0.1042E+03
    -16.127  0.2030E+02  0.1045E+03
    -16.113  0.2015E+02  0.1048E+03
    -16.099  0.1999E+02  0.1051E+03
    -16.085  0.1981E+02  0.1054E+03
    -16.071  0.1963E+02  0.1056E+03
    -16.057  0.1944E+02  0.1059E+03
    -16.043  0.1923E+02  0.1062E+03
    -16.029  0.1901E+02  0.1064E+03
    -16.015  0.1878E+02  0.1067E+03
    -16.001  0.1855E+02  0.1070E+03
    -15.987  0.1830E+02  0.1072E+03
    -15.973  0.1806E+02  0.1075E+03
    -15.959  0.1782E+02  0.1077E+03
    -15.945  0.1758E+02  0.1080E+03
    -15.931  0.1735E+02  0.1082E+03
    -15.917  0.1714E+02  0.1085E+03
    -15.903  0.1695E+02  0.1087E+03
    -15.889  0.1678E+02  0.1089E+03
    -15.875  0.1664E+02  0.1092E+03
    -15.861  0.1653E+02  0.1094E+03
    -15.847  0.1645E+02  0.1096E+03
    -15.833  0.1641E+02  0.1099E+03
    -15.819  0.1641E+02  0.1101E+03
    -15.805  0.1644E+02  0.1103E+03
    -15.791  0.1651E+02  0.1106E+03
    -15.777  0.1660E+02  0.1108E+03
    -15.763  0.1673E+02  0.1110E+03
    -15.749  0.1688E+02  0.1113E+03
    -15.735  0.1705E+02  0.1115E+03
    -15.721  0.1722E+02  0.1117E+03
    -15.707  0.1740E+02  0.1120E+03
    -15.693  0.1758E+02  0.1122E+03
    -15.679  0.1775E+02  0.1125E+03
    -15.665  0.1790E+02  0.1127E+03
    -15.651  0.1802E+02  0.1130E+03
    -15.637  0.1812E+02  0.1132E+03
    -15.623  0.1818E+02  0.1135E+03
    -15.609  0.1821E+02  0.1137E+03
    -15.595  0.1820E+02  0.1140E+03
    -15.580  0.1815E+02  0.1143E+03
    -15.566  0.1807E+02  0.1145E+03
    -15.552  0.1795E+02  0.1148E+03
    -15.538  0.1781E+02  0.1150E+03
    -15.524  0.1764E+02  0.1153E+03
    -15.510  0.1745E+02  0.1155E+03
    -15.496  0.1726E+02  0.1157E+03
    -15.482  0.1706E+02  0.1160E+03
    -15.468  0.1687E+02  0.1162E+03
    -15.454  0.1669E+02  0.1164E+03
    -15.440  0.1652E+02  0.1167E+03
    -15.426  0.1637E+02  0.1169E+03
    -15.412  0.1625E+02  0.1171E+03
    -15.398  0.1615E+02  0.1174E+03
    -15.384  0.1608E+02  0.1176E+03
    -15.370  0.1603E+02  0.1178E+03
    -15.356  0.1600E+02  0.1180E+03
    -15.342  0.1600E+02  0.1183E+03
    -15.328  0.1601E+02  0.1185E+03
    -15.314  0.1604E+02  0.1187E+03
    -15.300  0.1607E+02  0.1189E+03
    -15.286  0.1612E+02  0.1192E+03
    -15.272  0.1616E+02  0.1194E+03
    -15.258  0.1621E+02  0.1196E+03
    -15.244  0.1626E+02  0.1198E+03
    -15.230  0.1630E+02  0.1201E+03
    -15.216  0.1634E+02  0.1203E+03
    -15.202  0.1638E+02  0.1205E+03
    -15.188  0.1642E+02  0.1208E+03
    -15.174  0.1647E+02  0.1210E+03
    -15.160  0.1651E+02  0.1212E+03
    -15.146  0.1656E+02  0.1215E+03
    -15.132  0.1662E+02  0.1217E+03
    -15.118  0.1669E+02  0.1219E+03
    -15.104  0.1676E+02  0.1222E+03
    -15.090  0.1684E+02  0.1224E+03
    -15.076  0.1693E+02  0.1226E+03
    -15.062  0.1703E+02  0.1229E+03
    -15.048  0.1713E+02  0.1231E+03
    -15.034  0.1724E+02  0.1234E+03
    -15.020  0.1736E+02  0.1236E+03
    -15.006  0.1748E+02  0.1238E+03
    -14.992  0.1760E+02  0.1241E+03
    -14.978  0.1773E+02  0.1243E+03
    -14.964  0.1787E+02  0.1246E+03
    -14.950  0.1801E+02  0.1248E+03
    -14.936  0.1816E+02  0.1251E+03
    -14.922  0.1831E+02  0.1254E+03
    -14.908  0.1848E+02  0.1256E+03
    -14.894  0.1866E+02  0.1259E+03
    -14.880  0.1885E+02  0.1261E+03
    -14.866  0.1905E+02  0.1264E+03
    -14.852  0.1927E+02  0.1267E+03
    -14.838  0.1950E+02  0.1269E+03
    -14.824  0.1973E+02  0.1272E+03
    -14.810  0.1997E+02  0.1275E+03
    -14.796  0.2022E+02  0.1278E+03
    -14.782  0.2046E+02  0.1281E+03
    -14.768  0.2069E+02  0.1284E+03
    -14.754  0.2090E+02  0.1287E+03
    -14.739  0.2110E+02  0.1290E+03
    -14.725  0.2127E+02  0.1292E+03
    -14.711  0.2141E+02  0.1295E+03
    -14.697  0.2152E+02  0.1299E+03
    -14.683  0.2159E+02  0.1302E+03
    -14.669  0.2162E+02  0.1305E+03
    -14.655  0.2161E+02  0.1308E+03
    -14.641  0.2156E+02  0.1311E+03
    -14.627  0.2147E+02  0.1314E+03
    -14.613  0.2134E+02  0.1317E+03
    -14.599  0.2118E+02  0.1320E+03
    -14.585  0.2099E+02  0.1323E+03
    -14.571  0.2077E+02  0.1325E+03
    -14.557  0.2053E+02  0.1328E+03
    -14.543  0.2028E+02  0.1331E+03
    -14.529  0.2002E+02  0.1334E+03
    -14.515  0.1975E+02  0.1337E+03
    -14.501  0.1948E+02  0.1339E+03
    -14.487  0.1921E+02  0.1342E+03
    -14.473  0.1894E+02  0.1345E+03
    -14.459  0.1868E+02  0.1347E+03
    -14.445  0.1842E+02  0.1350E+03
    -14.431  0.1817E+02  0.1353E+03
    -14.417  0.1794E+02  0.1355E+03
    -14.403  0.1771E+02  0.1358E+03
    -14.389  0.1750E+02  0.1360E+03
    -14.375  0.1730E+02  0.1362E+03
    -14.361  0.1712E+02  0.1365E+03
    -14.347  0.1695E+02  0.1367E+03
    -14.333  0.1680E+02  0.1370E+03
    -14.319  0.1666E+02  0.1372E+03
    -14.305  0.1654E+02  0.1374E+03
    -14.291  0.1644E+02  0.1377E+03
    -14.277  0.1635E+02  0.1379E+03
    -14.263  0.1628E+02  0.1381E+03
    -14.249  0.1622E+02  0.1383E+03
    -14.235  0.1618E+02  0.1386E+03
    -14.221  0.1615E+02  0.1388E+03
    -14.207  0.1613E+02  0.1390E+03
    -14.193  0.1612E+02  0.1392E+03
    -14.179  0.1612E+02  0.1395E+03
    -14.165  0.1613E+02  0.1397E+03
    -14.151  0.1614E+02  0.1399E+03
    -14.137  0.1617E+02  0.1401E+03
    -14.123  0.1620E+02  0.1404E+03
    -14.109  0.1624E+02  0.1406E+03
    -14.095  0.1629E+02  0.1408E+03
    -14.081  0.1635E+02  0.1411E+03
    -14.067  0.1642E+02  0.1413E+03
    -14.053  0.1650E+02  0.1415E+03
    -14.039  0.1659E+02  0.1418E+03
    -14.025  0.1670E+02  0.1420E+03
    -14.011  0.1682E+02  0.1422E+03
    -13.997  0.1696E+02  0.1425E+03
    -13.983  0.1710E+02  0.1427E+03
    -13.969  0.1725E+02  0.1429E+03
    -13.955  0.1742E+02  0.1432E+03
    -13.941  0.1758E+02  0.1434E+03
    -13.927  0.1775E+02  0.1437E+03
    -13.913  0.1791E+02  0.1439E+03
    -13.898  0.1807E+02  0.1442E+03
    -13.884  0.1821E+02  0.1444E+03
    -13.870  0.1835E+02  0.1447E+03
    -13.856  0.1847E+02  0.1450E+03
    -13.842  0.1857E+02  0.1452E+03
    -13.828  0.1865E+02  0.1455E+03
    -13.814  0.1872E+02  0.1457E+03
    -13.800  0.1877E+02  0.1460E+03
    -13.786  0.1880E+02  0.1463E+03
    -13.772  0.1882E+02  0.1465E+03
    -13.758  0.1882E+02  0.1468E+03
    -13.744  0.1881E+02  0.1471E+03
    -13.730  0.1880E+02  0.1473E+03
    -13.716  0.1879E+02  0.1476E+03
    -13.702  0.1878E+02  0.1478E+03
    -13.688  0.1877E+02  0.1481E+03
    -13.674  0.1878E+02  0.1484E+03
    -13.660  0.1879E+02  0.1486E+03
    -13.646  0.1882E+02  0.1489E+03
    -13.632  0.1887E+02  0.1492E+03
    -13.618  0.1894E+02  0.1494E+03
    -13.604  0.1902E+02  0.1497E+03
    -13.590  0.1912E+02  0.1500E+03
    -13.576  0.1924E+02  0.1502E+03
    -13.562  0.1937E+02  0.1505E+03
    -13.548  0.1952E+02  0.1508E+03
    -13.534  0.1968E+02  0.1511E+03
    -13.520  0.1984E+02  0.1513E+03
    -13.506  0.2002E+02  0.1516E+03
    -13.492  0.2019E+02  0.1519E+03
    -13.478  0.2037E+02  0.1522E+03
    -13.464  0.2055E+02  0.1525E+03
    -13.450  0.2072E+02  0.1528E+03
    -13.436  0.2089E+02  0.1531E+03
    -13.422  0.2106E+02  0.1534E+03
    -13.408  0.2121E+02  0.1536E+03
    -13.394  0.2136E+02  0.1539E+03
    -13.380  0.2149E+02  0.1542E+03
    -13.366  0.2162E+02  0.1546E+03
    -13.352  0.2173E+02  0.1549E+03
    -13.338  0.2184E+02  0.1552E+03
    -13.324  0.2193E+02  0.1555E+03
    -13.310  0.2200E+02  0.1558E+03
    -13.296  0.2207E+02  0.1561E+03
    -13.282  0.2212E+02  0.1564E+03
    -13.268  0.2216E+02  0.1567E+03
    -13.254  0.2219E+02  0.1570E+03
    -13.240  0.2221E+02  0.1573E+03
    -13.226  0.2221E+02  0.1576E+03
    -13.212  0.2221E+02  0.1580E+03
    -13.198  0.2220E+02  0.1583E+03
    -13.184  0.2218E+02  0.1586E+03
    -13.170  0.2216E+02  0.1589E+03
    -13.156  0.2213E+02  0.1592E+03
    -13.142  0.2211E+02  0.1595E+03
    -13.128  0.2208E+02  0.1598E+03
    -13.114  0.2206E+02  0.1601E+03
    -13.100  0.2204E+02  0.1604E+03
    -13.086  0.2202E+02  0.1607E+03
    -13.071  0.2201E+02  0.1611E+03
    -13.057  0.2201E+02  0.1614E+03
    -13.043  0.2201E+02  0.1617E+03
    -13.029  0.2202E+02  0.1620E+03
    -13.015  0.2204E+02  0.1623E+03
    -13.001  0.2206E+02  0.1626E+03
    -12.987  0.2210E+02  0.1629E+03
    -12.973  0.2214E+02  0.1632E+03
    -12.959  0.2218E+02  0.1635E+03
    -12.945  0.2223E+02  0.1638E+03
    -12.931  0.2228E+02  0.1641E+03
    -12.917  0.2234E+02  0.1645E+03
    -12.903  0.2239E+02  0.1648E+03
    -12.889  0.2244E+02  0.1651E+03
    -12.875  0.2249E+02  0.1654E+03
    -12.861  0.2253E+02  0.1657E+03
    -12.847  0.2256E+02  0.1660E+03
    -12.833  0.2257E+02  0.1664E+03
    -12.819  0.2258E+02  0.1667E+03
    -12.805  0.2257E+02  0.1670E+03
    -12.791  0.2254E+02  0.1673E+03
    -12.777  0.2249E+02  0.1676E+03
    -12.763  0.2243E+02  0.1679E+03
    -12.749  0.2234E+02  0.1682E+03
    -12.735  0.2223E+02  0.1686E+03
    -12.721  0.2211E+02  0.1689E+03
    -12.707  0.2196E+02  0.1692E+03
    -12.693  0.2180E+02  0.1695E+03
    -12.679  0.2162E+02  0.1698E+03
    -12.665  0.2142E+02  0.1701E+03
    -12.651  0.2122E+02  0.1704E+03
    -12.637  0.2100E+02  0.1707E+03
    -12.623  0.2077E+02  0.1710E+03
    -12.609  0.2055E+02  0.1713E+03
    -12.595  0.2032E+02  0.1715E+03
    -12.581  0.2010E+02  0.1718E+03
    -12.567  0.1989E+02  0.1721E+03
    -12.553  0.1969E+02  0.1724E+03
    -12.539  0.1951E+02  0.1726E+03
    -12.525  0.1935E+02  0.1729E+03
    -12.511  0.1921E+02  0.1732E+03
    -12.497  0.1910E+02  0.1735E+03
    -12.483  0.1902E+02  0.1737E+03
    -12.469  0.1898E+02  0.1740E+03
    -12.455  0.1897E+02  0.1743E+03
    -12.441  0.1900E+02  0.1745E+03
    -12.427  0.1906E+02  0.1748E+03
    -12.413  0.1916E+02  0.1751E+03