 140 140   0   0
  0.2619380E+02  0.2130000E-08  0.1721659E-08  0.1000000E-08  0.5000000E-15
  1.000000000000000E-004
  CAR 
 unknown system                          
      5.83164886    -23.90904421 2000     -1.33058054      1.00000000
    -23.909  0.0000E+00  0.0000E+00
    -23.894  0.0000E+00  0.0000E+00
    -23.879  0.0000E+00  0.0000E+00
    -23.864  0.0000E+00  0.0000E+00
    -23.850  0.0000E+00  0.0000E+00
    -23.835  0.0000E+00  0.0000E+00
    -23.820  0.0000E+00  0.0000E+00
    -23.805  0.0000E+00  0.0000E+00
    -23.790  0.0000E+00  0.0000E+00
    -23.775  0.0000E+00  0.0000E+00
    -23.760  0.0000E+00  0.0000E+00
    -23.745  0.0000E+00  0.0000E+00
    -23.731  0.0000E+00  0.0000E+00
    -23.716  0.0000E+00  0.0000E+00
    -23.701  0.0000E+00  0.0000E+00
    -23.686  0.0000E+00  0.0000E+00
    -23.671  0.0000E+00  0.0000E+00
    -23.656  0.0000E+00  0.0000E+00
    -23.641  0.0000E+00  0.0000E+00
    -23.626  0.0000E+00  0.0000E+00
    -23.611  0.0000E+00  0.0000E+00
    -23.597  0.0000E+00  0.0000E+00
    -23.582  0.0000E+00  0.0000E+00
    -23.567  0.0000E+00  0.0000E+00
    -23.552  0.0000E+00  0.0000E+00
    -23.537  0.0000E+00  0.0000E+00
    -23.522  0.0000E+00  0.0000E+00
    -23.507  0.0000E+00  0.0000E+00
    -23.492  0.0000E+00  0.0000E+00
    -23.478  0.0000E+00  0.0000E+00
    -23.463  0.0000E+00  0.0000E+00
    -23.448  0.0000E+00  0.0000E+00
    -23.433  0.0000E+00  0.0000E+00
    -23.418  0.0000E+00  0.0000E+00
    -23.403  0.0000E+00  0.0000E+00
    -23.388  0.0000E+00  0.0000E+00
    -23.373  0.0000E+00  0.0000E+00
    -23.359  0.0000E+00  0.0000E+00
    -23.344  0.0000E+00  0.0000E+00
    -23.329  0.0000E+00  0.0000E+00
    -23.314  0.0000E+00  0.0000E+00
    -23.299  0.0000E+00  0.0000E+00
    -23.284  0.0000E+00  0.0000E+00
    -23.269  0.0000E+00  0.0000E+00
    -23.254  0.0000E+00  0.0000E+00
    -23.240  0.0000E+00  0.0000E+00
    -23.225  0.0000E+00  0.0000E+00
    -23.210  0.0000E+00  0.0000E+00
    -23.195  0.0000E+00  0.0000E+00
    -23.180  0.0000E+00  0.0000E+00
    -23.165  0.0000E+00  0.0000E+00
    -23.150  0.0000E+00  0.0000E+00
    -23.135  0.0000E+00  0.0000E+00
    -23.121  0.0000E+00  0.0000E+00
    -23.106  0.0000E+00  0.0000E+00
    -23.091  0.7462E-14  0.1110E-15
    -23.076  0.0000E+00  0.1110E-15
    -23.061  0.1492E-13  0.3331E-15
    -23.046  0.3234E-13  0.8142E-15
    -23.031  0.7379E-13  0.1912E-14
    -23.016  0.1700E-12  0.4441E-14
    -23.001  0.3905E-12  0.1025E-13
    -22.987  0.8789E-12  0.2333E-13
    -22.972  0.1960E-11  0.5249E-13
    -22.957  0.4321E-11  0.1168E-12
    -22.942  0.9424E-11  0.2570E-12
    -22.927  0.2033E-10  0.5594E-12
    -22.912  0.4338E-10  0.1205E-11
    -22.897  0.9153E-10  0.2567E-11
    -22.882  0.1910E-09  0.5408E-11
    -22.868  0.3942E-09  0.1127E-10
    -22.853  0.8047E-09  0.2325E-10
    -22.838  0.1625E-08  0.4742E-10
    -22.823  0.3244E-08  0.9568E-10
    -22.808  0.6405E-08  0.1910E-09
    -22.793  0.1251E-07  0.3771E-09
    -22.778  0.2416E-07  0.7365E-09
    -22.763  0.4615E-07  0.1423E-08
    -22.749  0.8719E-07  0.2720E-08
    -22.734  0.1629E-06  0.5144E-08
    -22.719  0.3010E-06  0.9623E-08
    -22.704  0.5502E-06  0.1781E-07
    -22.689  0.9945E-06  0.3260E-07
    -22.674  0.1778E-05  0.5905E-07
    -22.659  0.3143E-05  0.1058E-06
    -22.644  0.5496E-05  0.1876E-06
    -22.630  0.9503E-05  0.3290E-06
    -22.615  0.1625E-04  0.5708E-06
    -22.600  0.2749E-04  0.9798E-06
    -22.585  0.4599E-04  0.1664E-05
    -22.570  0.7609E-04  0.2796E-05
    -22.555  0.1245E-03  0.4649E-05
    -22.540  0.2015E-03  0.7646E-05
    -22.525  0.3225E-03  0.1244E-04
    -22.511  0.5105E-03  0.2004E-04
    -22.496  0.7992E-03  0.3193E-04
    -22.481  0.1237E-02  0.5034E-04
    -22.466  0.1895E-02  0.7853E-04
    -22.451  0.2869E-02  0.1212E-03
    -22.436  0.4298E-02  0.1852E-03
    -22.421  0.6367E-02  0.2799E-03
    -22.406  0.9328E-02  0.4187E-03
    -22.392  0.1352E-01  0.6197E-03
    -22.377  0.1937E-01  0.9079E-03
    -22.362  0.2745E-01  0.1316E-02
    -22.347  0.3848E-01  0.1889E-02
    -22.332  0.5335E-01  0.2682E-02
    -22.317  0.7315E-01  0.3771E-02
    -22.302  0.9919E-01  0.5247E-02
    -22.287  0.1330E+00  0.7226E-02
    -22.272  0.1765E+00  0.9852E-02
    -22.258  0.2316E+00  0.1330E-01
    -22.243  0.3005E+00  0.1777E-01
    -22.228  0.3857E+00  0.2350E-01
    -22.213  0.4896E+00  0.3079E-01
    -22.198  0.6148E+00  0.3994E-01
    -22.183  0.7635E+00  0.5129E-01
    -22.168  0.9380E+00  0.6525E-01
    -22.153  0.1140E+01  0.8221E-01
    -22.139  0.1370E+01  0.1026E+00
    -22.124  0.1630E+01  0.1269E+00
    -22.109  0.1918E+01  0.1554E+00
    -22.094  0.2233E+01  0.1886E+00
    -22.079  0.2572E+01  0.2269E+00
    -22.064  0.2932E+01  0.2705E+00
    -22.049  0.3308E+01  0.3197E+00
    -22.034  0.3694E+01  0.3747E+00
    -22.020  0.4085E+01  0.4354E+00
    -22.005  0.4473E+01  0.5020E+00
    -21.990  0.4851E+01  0.5741E+00
    -21.975  0.5213E+01  0.6517E+00
    -21.960  0.5553E+01  0.7343E+00
    -21.945  0.5865E+01  0.8216E+00
    -21.930  0.6146E+01  0.9130E+00
    -21.915  0.6392E+01  0.1008E+01
    -21.901  0.6602E+01  0.1106E+01
    -21.886  0.6778E+01  0.1207E+01
    -21.871  0.6920E+01  0.1310E+01
    -21.856  0.7031E+01  0.1415E+01
    -21.841  0.7115E+01  0.1521E+01
    -21.826  0.7177E+01  0.1627E+01
    -21.811  0.7221E+01  0.1735E+01
    -21.796  0.7249E+01  0.1843E+01
    -21.782  0.7267E+01  0.1951E+01
    -21.767  0.7276E+01  0.2059E+01
    -21.752  0.7276E+01  0.2167E+01
    -21.737  0.7269E+01  0.2275E+01
    -21.722  0.7253E+01  0.2383E+01
    -21.707  0.7226E+01  0.2491E+01
    -21.692  0.7185E+01  0.2598E+01
    -21.677  0.7129E+01  0.2704E+01
    -21.662  0.7054E+01  0.2809E+01
    -21.648  0.6961E+01  0.2912E+01
    -21.633  0.6848E+01  0.3014E+01
    -21.618  0.6718E+01  0.3114E+01
    -21.603  0.6575E+01  0.3212E+01
    -21.588  0.6422E+01  0.3308E+01
    -21.573  0.6268E+01  0.3401E+01
    -21.558  0.6121E+01  0.3492E+01
    -21.543  0.5991E+01  0.3581E+01
    -21.529  0.5889E+01  0.3669E+01
    -21.514  0.5825E+01  0.3755E+01
    -21.499  0.5811E+01  0.3842E+01
    -21.484  0.5855E+01  0.3929E+01
    -21.469  0.5967E+01  0.4018E+01
    -21.454  0.6153E+01  0.4109E+01
    -21.439  0.6416E+01  0.4205E+01
    -21.424  0.6758E+01  0.4305E+01
    -21.410  0.7178E+01  0.4412E+01
    -21.395  0.7672E+01  0.4526E+01
    -21.380  0.8233E+01  0.4649E+01
    -21.365  0.8853E+01  0.4780E+01
    -21.350  0.9522E+01  0.4922E+01
    -21.335  0.1023E+02  0.5074E+01
    -21.320  0.1096E+02  0.5237E+01
    -21.305  0.1171E+02  0.5411E+01
    -21.291  0.1245E+02  0.5597E+01
    -21.276  0.1319E+02  0.5793E+01
    -21.261  0.1390E+02  0.6000E+01
    -21.246  0.1459E+02  0.6217E+01
    -21.231  0.1524E+02  0.6443E+01
    -21.216  0.1585E+02  0.6679E+01
    -21.201  0.1643E+02  0.6924E+01
    -21.186  0.1695E+02  0.7176E+01
    -21.172  0.1744E+02  0.7435E+01
    -21.157  0.1788E+02  0.7701E+01
    -21.142  0.1828E+02  0.7973E+01
    -21.127  0.1865E+02  0.8251E+01
    -21.112  0.1898E+02  0.8533E+01
    -21.097  0.1928E+02  0.8820E+01
    -21.082  0.1954E+02  0.9111E+01
    -21.067  0.1978E+02  0.9405E+01
    -21.053  0.1999E+02  0.9703E+01
    -21.038  0.2018E+02  0.1000E+02
    -21.023  0.2034E+02  0.1031E+02
    -21.008  0.2048E+02  0.1061E+02
    -20.993  0.2060E+02  0.1092E+02
    -20.978  0.2070E+02  0.1122E+02
    -20.963  0.2077E+02  0.1153E+02
    -20.948  0.2083E+02  0.1184E+02
    -20.933  0.2086E+02  0.1215E+02
    -20.919  0.2088E+02  0.1246E+02
    -20.904  0.2087E+02  0.1278E+02
    -20.889  0.2085E+02  0.1309E+02
    -20.874  0.2079E+02  0.1339E+02
    -20.859  0.2072E+02  0.1370E+02
    -20.844  0.2062E+02  0.1401E+02
    -20.829  0.2049E+02  0.1431E+02
    -20.814  0.2034E+02  0.1462E+02
    -20.800  0.2015E+02  0.1492E+02
    -20.785  0.1994E+02  0.1521E+02
    -20.770  0.1969E+02  0.1551E+02
    -20.755  0.1941E+02  0.1580E+02
    -20.740  0.1910E+02  0.1608E+02
    -20.725  0.1876E+02  0.1636E+02
    -20.710  0.1840E+02  0.1663E+02
    -20.695  0.1802E+02  0.1690E+02
    -20.681  0.1762E+02  0.1716E+02
    -20.666  0.1722E+02  0.1742E+02
    -20.651  0.1681E+02  0.1767E+02
    -20.636  0.1641E+02  0.1791E+02
    -20.621  0.1602E+02  0.1815E+02
    -20.606  0.1566E+02  0.1838E+02
    -20.591  0.1534E+02  0.1861E+02
    -20.576  0.1505E+02  0.1884E+02
    -20.562  0.1482E+02  0.1906E+02
    -20.547  0.1463E+02  0.1927E+02
    -20.532  0.1451E+02  0.1949E+02
    -20.517  0.1446E+02  0.1971E+02
    -20.502  0.1447E+02  0.1992E+02
    -20.487  0.1456E+02  0.2014E+02
    -20.472  0.1471E+02  0.2036E+02
    -20.457  0.1493E+02  0.2058E+02
    -20.443  0.1521E+02  0.2081E+02
    -20.428  0.1555E+02  0.2104E+02
    -20.413  0.1593E+02  0.2127E+02
    -20.398  0.1636E+02  0.2152E+02
    -20.383  0.1682E+02  0.2177E+02
    -20.368  0.1729E+02  0.2202E+02
    -20.353  0.1778E+02  0.2229E+02
    -20.338  0.1827E+02  0.2256E+02
    -20.323  0.1875E+02  0.2284E+02
    -20.309  0.1921E+02  0.2313E+02
    -20.294  0.1964E+02  0.2342E+02
    -20.279  0.2003E+02  0.2372E+02
    -20.264  0.2037E+02  0.2402E+02
    -20.249  0.2067E+02  0.2433E+02
    -20.234  0.2091E+02  0.2464E+02
    -20.219  0.2110E+02  0.2495E+02
    -20.204  0.2122E+02  0.2527E+02
    -20.190  0.2129E+02  0.2558E+02
    -20.175  0.2129E+02  0.2590E+02
    -20.160  0.2124E+02  0.2622E+02
    -20.145  0.2114E+02  0.2653E+02
    -20.130  0.2098E+02  0.2684E+02
    -20.115  0.2079E+02  0.2715E+02
    -20.100  0.2056E+02  0.2746E+02
    -20.085  0.2030E+02  0.2776E+02
    -20.071  0.2001E+02  0.2806E+02
    -20.056  0.1972E+02  0.2835E+02
    -20.041  0.1942E+02  0.2864E+02
    -20.026  0.1912E+02  0.2892E+02
    -20.011  0.1883E+02  0.2920E+02
    -19.996  0.1855E+02  0.2948E+02
    -19.981  0.1830E+02  0.2975E+02
    -19.966  0.1807E+02  0.3002E+02
    -19.952  0.1788E+02  0.3029E+02
    -19.937  0.1771E+02  0.3055E+02
    -19.922  0.1758E+02  0.3081E+02
    -19.907  0.1748E+02  0.3107E+02
    -19.892  0.1741E+02  0.3133E+02
    -19.877  0.1737E+02  0.3159E+02
    -19.862  0.1736E+02  0.3185E+02
    -19.847  0.1737E+02  0.3211E+02
    -19.833  0.1740E+02  0.3237E+02
    -19.818  0.1744E+02  0.3263E+02
    -19.803  0.1750E+02  0.3289E+02
    -19.788  0.1756E+02  0.3315E+02
    -19.773  0.1763E+02  0.3341E+02
    -19.758  0.1770E+02  0.3367E+02
    -19.743  0.1776E+02  0.3394E+02
    -19.728  0.1783E+02  0.3420E+02
    -19.714  0.1788E+02  0.3447E+02
    -19.699  0.1793E+02  0.3473E+02
    -19.684  0.1797E+02  0.3500E+02
    -19.669  0.1800E+02  0.3527E+02
    -19.654  0.1802E+02  0.3554E+02
    -19.639  0.1804E+02  0.3581E+02
    -19.624  0.1805E+02  0.3608E+02
    -19.609  0.1806E+02  0.3634E+02
    -19.594  0.1807E+02  0.3661E+02
    -19.580  0.1807E+02  0.3688E+02
    -19.565  0.1809E+02  0.3715E+02
    -19.550  0.1811E+02  0.3742E+02
    -19.535  0.1814E+02  0.3769E+02
    -19.520  0.1818E+02  0.3796E+02
    -19.505  0.1825E+02  0.3823E+02
    -19.490  0.1833E+02  0.3850E+02
    -19.475  0.1843E+02  0.3878E+02
    -19.461  0.1855E+02  0.3905E+02
    -19.446  0.1870E+02  0.3933E+02
    -19.431  0.1887E+02  0.3961E+02
    -19.416  0.1907E+02  0.3990E+02
    -19.401  0.1928E+02  0.4018E+02
    -19.386  0.1952E+02  0.4047E+02
    -19.371  0.1977E+02  0.4077E+02
    -19.356  0.2003E+02  0.4107E+02
    -19.342  0.2030E+02  0.4137E+02
    -19.327  0.2057E+02  0.4167E+02
    -19.312  0.2084E+02  0.4198E+02
    -19.297  0.2110E+02  0.4230E+02
    -19.282  0.2135E+02  0.4262E+02
    -19.267  0.2158E+02  0.4294E+02
    -19.252  0.2179E+02  0.4326E+02
    -19.237  0.2198E+02  0.4359E+02
    -19.223  0.2213E+02  0.4392E+02
    -19.208  0.2227E+02  0.4425E+02
    -19.193  0.2237E+02  0.4458E+02
    -19.178  0.2244E+02  0.4492E+02
    -19.163  0.2248E+02  0.4525E+02
    -19.148  0.2249E+02  0.4558E+02
    -19.133  0.2248E+02  0.4592E+02
    -19.118  0.2244E+02  0.4625E+02
    -19.104  0.2238E+02  0.4659E+02
    -19.089  0.2230E+02  0.4692E+02
    -19.074  0.2221E+02  0.4725E+02
    -19.059  0.2210E+02  0.4758E+02
    -19.044  0.2198E+02  0.4790E+02
    -19.029  0.2185E+02  0.4823E+02
    -19.014  0.2171E+02  0.4855E+02
    -18.999  0.2156E+02  0.4887E+02
    -18.984  0.2141E+02  0.4919E+02
    -18.970  0.2125E+02  0.4951E+02
    -18.955  0.2109E+02  0.4982E+02
    -18.940  0.2092E+02  0.5013E+02
    -18.925  0.2076E+02  0.5044E+02
    -18.910  0.2060E+02  0.5075E+02
    -18.895  0.2044E+02  0.5105E+02
    -18.880  0.2029E+02  0.5135E+02
    -18.865  0.2015E+02  0.5165E+02
    -18.851  0.2002E+02  0.5195E+02
    -18.836  0.1990E+02  0.5225E+02
    -18.821  0.1980E+02  0.5254E+02
    -18.806  0.1971E+02  0.5284E+02
    -18.791  0.1965E+02  0.5313E+02
    -18.776  0.1961E+02  0.5342E+02
    -18.761  0.1958E+02  0.5371E+02
    -18.746  0.1959E+02  0.5400E+02
    -18.732  0.1961E+02  0.5429E+02
    -18.717  0.1965E+02  0.5459E+02
    -18.702  0.1971E+02  0.5488E+02
    -18.687  0.1979E+02  0.5517E+02
    -18.672  0.1988E+02  0.5547E+02
    -18.657  0.1997E+02  0.5577E+02
    -18.642  0.2007E+02  0.5607E+02
    -18.627  0.2017E+02  0.5637E+02
    -18.613  0.2027E+02  0.5667E+02
    -18.598  0.2035E+02  0.5697E+02
    -18.583  0.2042E+02  0.5727E+02
    -18.568  0.2047E+02  0.5758E+02
    -18.553  0.2050E+02  0.5788E+02
    -18.538  0.2051E+02  0.5819E+02
    -18.523  0.2049E+02  0.5849E+02
    -18.508  0.2045E+02  0.5880E+02
    -18.494  0.2038E+02  0.5910E+02
    -18.479  0.2029E+02  0.5940E+02
    -18.464  0.2017E+02  0.5970E+02
    -18.449  0.2004E+02  0.6000E+02
    -18.434  0.1990E+02  0.6030E+02
    -18.419  0.1974E+02  0.6059E+02
    -18.404  0.1957E+02  0.6088E+02
    -18.389  0.1941E+02  0.6117E+02
    -18.375  0.1924E+02  0.6146E+02
    -18.360  0.1909E+02  0.6174E+02
    -18.345  0.1894E+02  0.6202E+02
    -18.330  0.1881E+02  0.6230E+02
    -18.315  0.1870E+02  0.6258E+02
    -18.300  0.1861E+02  0.6286E+02
    -18.285  0.1856E+02  0.6313E+02
    -18.270  0.1853E+02  0.6341E+02
    -18.255  0.1853E+02  0.6368E+02
    -18.241  0.1856E+02  0.6396E+02
    -18.226  0.1863E+02  0.6424E+02
    -18.211  0.1873E+02  0.6452E+02
    -18.196  0.1886E+02  0.6480E+02
    -18.181  0.1903E+02  0.6508E+02
    -18.166  0.1922E+02  0.6537E+02
    -18.151  0.1944E+02  0.6566E+02
    -18.136  0.1968E+02  0.6595E+02
    -18.122  0.1995E+02  0.6625E+02
    -18.107  0.2023E+02  0.6655E+02
    -18.092  0.2052E+02  0.6685E+02
    -18.077  0.2083E+02  0.6716E+02
    -18.062  0.2114E+02  0.6748E+02
    -18.047  0.2146E+02  0.6779E+02
    -18.032  0.2178E+02  0.6812E+02
    -18.017  0.2209E+02  0.6845E+02
    -18.003  0.2240E+02  0.6878E+02
    -17.988  0.2270E+02  0.6912E+02
    -17.973  0.2299E+02  0.6946E+02
    -17.958  0.2327E+02  0.6981E+02
    -17.943  0.2352E+02  0.7016E+02
    -17.928  0.2375E+02  0.7051E+02
    -17.913  0.2396E+02  0.7087E+02
    -17.898  0.2414E+02  0.7123E+02
    -17.884  0.2428E+02  0.7159E+02
    -17.869  0.2439E+02  0.7195E+02
    -17.854  0.2446E+02  0.7231E+02
    -17.839  0.2449E+02  0.7268E+02
    -17.824  0.2449E+02  0.7304E+02
    -17.809  0.2445E+02  0.7341E+02
    -17.794  0.2438E+02  0.7377E+02
    -17.779  0.2427E+02  0.7413E+02
    -17.765  0.2413E+02  0.7449E+02
    -17.750  0.2397E+02  0.7485E+02
    -17.735  0.2378E+02  0.7520E+02
    -17.720  0.2358E+02  0.7555E+02
    -17.705  0.2337E+02  0.7590E+02
    -17.690  0.2315E+02  0.7624E+02
    -17.675  0.2293E+02  0.7658E+02
    -17.660  0.2271E+02  0.7692E+02
    -17.645  0.2249E+02  0.7726E+02
    -17.631  0.2228E+02  0.7759E+02
    -17.616  0.2208E+02  0.7792E+02
    -17.601  0.2189E+02  0.7824E+02
    -17.586  0.2171E+02  0.7856E+02
    -17.571  0.2154E+02  0.7888E+02
    -17.556  0.2138E+02  0.7920E+02
    -17.541  0.2123E+02  0.7952E+02
    -17.526  0.2109E+02  0.7983E+02
    -17.512  0.2095E+02  0.8014E+02
    -17.497  0.2082E+02  0.8045E+02
    -17.482  0.2070E+02  0.8076E+02
    -17.467  0.2058E+02  0.8107E+02
    -17.452  0.2047E+02  0.8137E+02
    -17.437  0.2035E+02  0.8168E+02
    -17.422  0.2024E+02  0.8198E+02
    -17.407  0.2013E+02  0.8228E+02
    -17.393  0.2002E+02  0.8257E+02
    -17.378  0.1991E+02  0.8287E+02
    -17.363  0.1979E+02  0.8316E+02
    -17.348  0.1968E+02  0.8346E+02
    -17.333  0.1957E+02  0.8375E+02
    -17.318  0.1946E+02  0.8404E+02
    -17.303  0.1934E+02  0.8433E+02
    -17.288  0.1923E+02  0.8461E+02
    -17.274  0.1912E+02  0.8490E+02
    -17.259  0.1902E+02  0.8518E+02
    -17.244  0.1892E+02  0.8546E+02
    -17.229  0.1882E+02  0.8574E+02
    -17.214  0.1874E+02  0.8602E+02
    -17.199  0.1867E+02  0.8630E+02
    -17.184  0.1861E+02  0.8657E+02
    -17.169  0.1856E+02  0.8685E+02
    -17.155  0.1854E+02  0.8713E+02
    -17.140  0.1854E+02  0.8740E+02
    -17.125  0.1856E+02  0.8768E+02
    -17.110  0.1861E+02  0.8795E+02
    -17.095  0.1869E+02  0.8823E+02
    -17.080  0.1879E+02  0.8851E+02
    -17.065  0.1892E+02  0.8879E+02
    -17.050  0.1909E+02  0.8908E+02
    -17.036  0.1928E+02  0.8936E+02
    -17.021  0.1949E+02  0.8965E+02
    -17.006  0.1973E+02  0.8995E+02
    -16.991  0.1998E+02  0.9025E+02
    -16.976  0.2025E+02  0.9055E+02
    -16.961  0.2052E+02  0.9085E+02
    -16.946  0.2079E+02  0.9116E+02
    -16.931  0.2105E+02  0.9147E+02
    -16.916  0.2130E+02  0.9179E+02
    -16.902  0.2153E+02  0.9211E+02
    -16.887  0.2172E+02  0.9244E+02
    -16.872  0.2188E+02  0.9276E+02
    -16.857  0.2201E+02  0.9309E+02
    -16.842  0.2208E+02  0.9342E+02
    -16.827  0.2211E+02  0.9375E+02
    -16.812  0.2210E+02  0.9407E+02
    -16.797  0.2204E+02  0.9440E+02
    -16.783  0.2193E+02  0.9473E+02
    -16.768  0.2178E+02  0.9505E+02
    -16.753  0.2159E+02  0.9537E+02
    -16.738  0.2138E+02  0.9569E+02
    -16.723  0.2114E+02  0.9601E+02
    -16.708  0.2089E+02  0.9632E+02
    -16.693  0.2063E+02  0.9662E+02
    -16.678  0.2038E+02  0.9693E+02
    -16.664  0.2014E+02  0.9723E+02
    -16.649  0.1992E+02  0.9752E+02
    -16.634  0.1973E+02  0.9782E+02
    -16.619  0.1958E+02  0.9811E+02
    -16.604  0.1947E+02  0.9840E+02
    -16.589  0.1941E+02  0.9869E+02
    -16.574  0.1940E+02  0.9898E+02
    -16.559  0.1944E+02  0.9926E+02
    -16.545  0.1953E+02  0.9956E+02
    -16.530  0.1967E+02  0.9985E+02
    -16.515  0.1986E+02  0.1001E+03
    -16.500  0.2010E+02  0.1004E+03
    -16.485  0.2037E+02  0.1007E+03
    -16.470  0.2067E+02  0.1011E+03
    -16.455  0.2100E+02  0.1014E+03
    -16.440  0.2135E+02  0.1017E+03
    -16.426  0.2171E+02  0.1020E+03
    -16.411  0.2206E+02  0.1023E+03
    -16.396  0.2242E+02  0.1027E+03
    -16.381  0.2276E+02  0.1030E+03
    -16.366  0.2308E+02  0.1033E+03
    -16.351  0.2338E+02  0.1037E+03
    -16.336  0.2364E+02  0.1040E+03
    -16.321  0.2388E+02  0.1044E+03
    -16.306  0.2408E+02  0.1048E+03
    -16.292  0.2424E+02  0.1051E+03
    -16.277  0.2436E+02  0.1055E+03
    -16.262  0.2445E+02  0.1058E+03
    -16.247  0.2450E+02  0.1062E+03
    -16.232  0.2452E+02  0.1066E+03
    -16.217  0.2451E+02  0.1069E+03
    -16.202  0.2447E+02  0.1073E+03
    -16.187  0.2441E+02  0.1077E+03
    -16.173  0.2433E+02  0.1080E+03
    -16.158  0.2423E+02  0.1084E+03
    -16.143  0.2413E+02  0.1088E+03
    -16.128  0.2401E+02  0.1091E+03
    -16.113  0.2389E+02  0.1095E+03
    -16.098  0.2377E+02  0.1098E+03
    -16.083  0.2365E+02  0.1102E+03
    -16.068  0.2353E+02  0.1105E+03
    -16.054  0.2342E+02  0.1109E+03
    -16.039  0.2331E+02  0.1112E+03
    -16.024  0.2321E+02  0.1116E+03
    -16.009  0.2311E+02  0.1119E+03
    -15.994  0.2302E+02  0.1122E+03
    -15.979  0.2294E+02  0.1126E+03
    -15.964  0.2287E+02  0.1129E+03
    -15.949  0.2281E+02  0.1133E+03
    -15.935  0.2275E+02  0.1136E+03
    -15.920  0.2270E+02  0.1139E+03
    -15.905  0.2265E+02  0.1143E+03
    -15.890  0.2260E+02  0.1146E+03
    -15.875  0.2255E+02  0.1150E+03
    -15.860  0.2249E+02  0.1153E+03
    -15.845  0.2244E+02  0.1156E+03
    -15.830  0.2237E+02  0.1160E+03
    -15.816  0.2230E+02  0.1163E+03
    -15.801  0.2222E+02  0.1166E+03
    -15.786  0.2214E+02  0.1169E+03
    -15.771  0.2204E+02  0.1173E+03
    -15.756  0.2194E+02  0.1176E+03
    -15.741  0.2183E+02  0.1179E+03
    -15.726  0.2171E+02  0.1182E+03
    -15.711  0.2159E+02  0.1186E+03
    -15.697  0.2146E+02  0.1189E+03
    -15.682  0.2134E+02  0.1192E+03
    -15.667  0.2121E+02  0.1195E+03
    -15.652  0.2108E+02  0.1198E+03
    -15.637  0.2095E+02  0.1201E+03
    -15.622  0.2082E+02  0.1205E+03
    -15.607  0.2070E+02  0.1208E+03
    -15.592  0.2057E+02  0.1211E+03
    -15.577  0.2045E+02  0.1214E+03
    -15.563  0.2033E+02  0.1217E+03
    -15.548  0.2021E+02  0.1220E+03
    -15.533  0.2009E+02  0.1223E+03
    -15.518  0.1999E+02  0.1226E+03
    -15.503  0.1988E+02  0.1229E+03
    -15.488  0.1979E+02  0.1232E+03
    -15.473  0.1971E+02  0.1235E+03
    -15.458  0.1964E+02  0.1238E+03
    -15.444  0.1959E+02  0.1240E+03
    -15.429  0.1956E+02  0.1243E+03
    -15.414  0.1954E+02  0.1246E+03
    -15.399  0.1954E+02  0.1249E+03
    -15.384  0.1956E+02  0.1252E+03
    -15.369  0.1961E+02  0.1255E+03
    -15.354  0.1968E+02  0.1258E+03
    -15.339  0.1977E+02  0.1261E+03
    -15.325  0.1988E+02  0.1264E+03
    -15.310  0.2001E+02  0.1267E+03
    -15.295  0.2016E+02  0.1270E+03
    -15.280  0.2033E+02  0.1273E+03
    -15.265  0.2052E+02  0.1276E+03
    -15.250  0.2072E+02  0.1279E+03
    -15.235  0.2093E+02  0.1282E+03
    -15.220  0.2114E+02  0.1285E+03
    -15.206  0.2136E+02  0.1288E+03
    -15.191  0.2158E+02  0.1292E+03
    -15.176  0.2180E+02  0.1295E+03
    -15.161  0.2201E+02  0.1298E+03
    -15.146  0.2221E+02  0.1301E+03
    -15.131  0.2240E+02  0.1305E+03
    -15.116  0.2257E+02  0.1308E+03
    -15.101  0.2271E+02  0.1311E+03
    -15.087  0.2284E+02  0.1315E+03
    -15.072  0.2293E+02  0.1318E+03
    -15.057  0.2301E+02  0.1322E+03
    -15.042  0.2305E+02  0.1325E+03
    -15.027  0.2307E+02  0.1329E+03
    -15.012  0.2307E+02  0.1332E+03
    -14.997  0.2304E+02  0.1335E+03
    -14.982  0.2299E+02  0.1339E+03
    -14.967  0.2292E+02  0.1342E+03
    -14.953  0.2284E+02  0.1346E+03
    -14.938  0.2275E+02  0.1349E+03
    -14.923  0.2264E+02  0.1352E+03
    -14.908  0.2253E+02  0.1356E+03
    -14.893  0.2240E+02  0.1359E+03
    -14.878  0.2227E+02  0.1362E+03
    -14.863  0.2214E+02  0.1366E+03
    -14.848  0.2200E+02  0.1369E+03
    -14.834  0.2185E+02  0.1372E+03
    -14.819  0.2169E+02  0.1375E+03
    -14.804  0.2152E+02  0.1379E+03
    -14.789  0.2135E+02  0.1382E+03
    -14.774  0.2117E+02  0.1385E+03
    -14.759  0.2099E+02  0.1388E+03
    -14.744  0.2080E+02  0.1391E+03
    -14.729  0.2061E+02  0.1394E+03
    -14.715  0.2043E+02  0.1397E+03
    -14.700  0.2026E+02  0.1400E+03
    -14.685  0.2010E+02  0.1403E+03
    -14.670  0.1997E+02  0.1406E+03
    -14.655  0.1986E+02  0.1409E+03
    -14.640  0.1979E+02  0.1412E+03
    -14.625  0.1975E+02  0.1415E+03
    -14.610  0.1976E+02  0.1418E+03
    -14.596  0.1982E+02  0.1421E+03
    -14.581  0.1992E+02  0.1424E+03
    -14.566  0.2007E+02  0.1427E+03
    -14.551  0.2027E+02  0.1430E+03
    -14.536  0.2051E+02  0.1433E+03
    -14.521  0.2078E+02  0.1436E+03
    -14.506  0.2109E+02  0.1439E+03
    -14.491  0.2142E+02  0.1442E+03
    -14.477  0.2177E+02  0.1446E+03
    -14.462  0.2213E+02  0.1449E+03
    -14.447  0.2249E+02  0.1452E+03
    -14.432  0.2284E+02  0.1456E+03
    -14.417  0.2317E+02  0.1459E+03
    -14.402  0.2348E+02  0.1463E+03
    -14.387  0.2376E+02  0.1466E+03
    -14.372  0.2401E+02  0.1470E+03
    -14.358  0.2422E+02  0.1473E+03
    -14.343  0.2438E+02  0.1477E+03
    -14.328  0.2451E+02  0.1481E+03
    -14.313  0.2459E+02  0.1484E+03
    -14.298  0.2463E+02  0.1488E+03
    -14.283  0.2463E+02  0.1492E+03
    -14.268  0.2460E+02  0.1495E+03
    -14.253  0.2454E+02  0.1499E+03
    -14.238  0.2444E+02  0.1503E+03
    -14.224  0.2433E+02  0.1506E+03
    -14.209  0.2420E+02  0.1510E+03
    -14.194  0.2405E+02  0.1513E+03
    -14.179  0.2390E+02  0.1517E+03
    -14.164  0.2375E+02  0.1520E+03
    -14.149  0.2361E+02  0.1524E+03
    -14.134  0.2347E+02  0.1527E+03
    -14.119  0.2335E+02  0.1531E+03
    -14.105  0.2325E+02  0.1534E+03
    -14.090  0.2317E+02  0.1538E+03
    -14.075  0.2311E+02  0.1541E+03
    -14.060  0.2308E+02  0.1545E+03
    -14.045  0.2308E+02  0.1548E+03
    -14.030  0.2310E+02  0.1552E+03
    -14.015  0.2315E+02  0.1555E+03
    -14.000  0.2323E+02  0.1558E+03
    -13.986  0.2333E+02  0.1562E+03
    -13.971  0.2345E+02  0.1565E+03
    -13.956  0.2359E+02  0.1569E+03
    -13.941  0.2373E+02  0.1572E+03
    -13.926  0.2388E+02  0.1576E+03
    -13.911  0.2404E+02  0.1580E+03
    -13.896  0.2419E+02  0.1583E+03
    -13.881  0.2433E+02  0.1587E+03
    -13.867  0.2445E+02  0.1590E+03
    -13.852  0.2456E+02  0.1594E+03
    -13.837  0.2464E+02  0.1598E+03
    -13.822  0.2470E+02  0.1601E+03
    -13.807  0.2472E+02  0.1605E+03
    -13.792  0.2472E+02  0.1609E+03
    -13.777  0.2469E+02  0.1612E+03
    -13.762  0.2462E+02  0.1616E+03
    -13.748  0.2452E+02  0.1620E+03
    -13.733  0.2440E+02  0.1623E+03
    -13.718  0.2425E+02  0.1627E+03
    -13.703  0.2407E+02  0.1631E+03
    -13.688  0.2387E+02  0.1634E+03
    -13.673  0.2365E+02  0.1638E+03
    -13.658  0.2342E+02  0.1641E+03
    -13.643  0.2317E+02  0.1645E+03
    -13.628  0.2291E+02  0.1648E+03
    -13.614  0.2265E+02  0.1651E+03
    -13.599  0.2238E+02  0.1655E+03
    -13.584  0.2211E+02  0.1658E+03
    -13.569  0.2185E+02  0.1661E+03
    -13.554  0.2159E+02  0.1664E+03
    -13.539  0.2135E+02  0.1668E+03
    -13.524  0.2111E+02  0.1671E+03
    -13.509  0.2090E+02  0.1674E+03
    -13.495  0.2071E+02  0.1677E+03
    -13.480  0.2054E+02  0.1680E+03
    -13.465  0.2040E+02  0.1683E+03
    -13.450  0.2029E+02  0.1686E+03
    -13.435  0.2021E+02  0.1689E+03
    -13.420  0.2016E+02  0.1692E+03
    -13.405  0.2013E+02  0.1695E+03
    -13.390  0.2013E+02  0.1698E+03
    -13.376  0.2015E+02  0.1701E+03
    -13.361  0.2018E+02  0.1704E+03
    -13.346  0.2023E+02  0.1707E+03
    -13.331  0.2029E+02  0.1710E+03
    -13.316  0.2036E+02  0.1713E+03
    -13.301  0.2043E+02  0.1716E+03
    -13.286  0.2049E+02  0.1719E+03
    -13.271  0.2055E+02  0.1722E+03
    -13.257  0.2060E+02  0.1725E+03
    -13.242  0.2064E+02  0.1728E+03
    -13.227  0.2067E+02  0.1732E+03
    -13.212  0.2069E+02  0.1735E+03
    -13.197  0.2070E+02  0.1738E+03
    -13.182  0.2070E+02  0.1741E+03
    -13.167  0.2070E+02  0.1744E+03
    -13.152  0.2069E+02  0.1747E+03
    -13.138  0.2068E+02  0.1750E+03
    -13.123  0.2067E+02  0.1753E+03
    -13.108  0.2066E+02  0.1756E+03
    -13.093  0.2065E+02  0.1759E+03
    -13.078  0.2065E+02  0.1762E+03
    -13.063  0.2065E+02  0.1765E+03
    -13.048  0.2066E+02  0.1768E+03
    -13.033  0.2068E+02  0.1772E+03
    -13.019  0.2070E+02  0.1775E+03
    -13.004  0.2074E+02  0.1778E+03
    -12.989  0.2078E+02  0.1781E+03
    -12.974  0.2083E+02  0.1784E+03
    -12.959  0.2089E+02  0.1787E+03
    -12.944  0.2095E+02  0.1790E+03
    -12.929  0.2102E+02  0.1793E+03
    -12.914  0.2110E+02  0.1796E+03
    -12.899  0.2119E+02  0.1800E+03
    -12.885  0.2128E+02  0.1803E+03
    -12.870  0.2138E+02  0.1806E+03
    -12.855  0.2148E+02  0.1809E+03
    -12.840  0.2159E+02  0.1812E+03
    -12.825  0.2171E+02  0.1815E+03
    -12.810  0.2183E+02  0.1819E+03
    -12.795  0.2196E+02  0.1822E+03
    -12.780  0.2209E+02  0.1825E+03
    -12.766  0.2223E+02  0.1829E+03
    -12.751  0.2237E+02  0.1832E+03
    -12.736  0.2251E+02  0.1835E+03
    -12.721  0.2265E+02  0.1839E+03
    -12.706  0.2278E+02  0.1842E+03
    -12.691  0.2291E+02  0.1845E+03
    -12.676  0.2303E+02  0.1849E+03
    -12.661  0.2314E+02  0.1852E+03
    -12.647  0.2323E+02  0.1856E+03
    -12.632  0.2331E+02  0.1859E+03
    -12.617  0.2337E+02  0.1863E+03
    -12.602  0.2342E+02  0.1866E+03
    -12.587  0.2344E+02  0.1870E+03
    -12.572  0.2345E+02  0.1873E+03
    -12.557  0.2344E+02  0.1877E+03
    -12.542  0.2342E+02  0.1880E+03
    -12.528  0.2339E+02  0.1884E+03
    -12.513  0.2335E+02  0.1887E+03
    -12.498  0.2331E+02  0.1891E+03
    -12.483  0.2327E+02  0.1894E+03
    -12.468  0.2323E+02  0.1897E+03
    -12.453  0.2321E+02  0.1901E+03
    -12.438  0.2319E+02  0.1904E+03
    -12.423  0.2318E+02  0.1908E+03
    -12.409  0.2319E+02  0.1911E+03
    -12.394  0.2320E+02  0.1915E+03
    -12.379  0.2322E+02  0.1918E+03
    -12.364  0.2325E+02  0.1922E+03
    -12.349  0.2328E+02  0.1925E+03
    -12.334  0.2330E+02  0.1929E+03
    -12.319  0.2331E+02  0.1932E+03
    -12.304  0.2331E+02  0.1936E+03
    -12.289  0.2330E+02  0.1939E+03
    -12.275  0.2326E+02  0.1942E+03
    -12.260  0.2320E+02  0.1946E+03
    -12.245  0.2312E+02  0.1949E+03
    -12.230  0.2302E+02  0.1953E+03
    -12.215  0.2289E+02  0.1956E+03
    -12.200  0.2275E+02  0.1960E+03
    -12.185  0.2259E+02  0.1963E+03
    -12.170  0.2242E+02  0.1966E+03
    -12.156  0.2224E+02  0.1970E+03
    -12.141  0.2207E+02  0.1973E+03
    -12.126  0.2190E+02  0.1976E+03
    -12.111  0.2175E+02  0.1979E+03
    -12.096  0.2162E+02  0.1983E+03
    -12.081  0.2151E+02  0.1986E+03
    -12.066  0.2144E+02  0.1989E+03
    -12.051  0.2139E+02  0.1992E+03
    -12.037  0.2138E+02  0.1995E+03
    -12.022  0.2140E+02  0.1998E+03
    -12.007  0.2146E+02  0.2002E+03
    -11.992  0.2155E+02  0.2005E+03
    -11.977  0.2167E+02  0.2008E+03
    -11.962  0.2181E+02  0.2011E+03
    -11.947  0.2197E+02  0.2015E+03
    -11.932  0.2214E+02  0.2018E+03
    -11.918  0.2232E+02  0.2021E+03
    -11.903  0.2251E+02  0.2025E+03
    -11.888  0.2270E+02  0.2028E+03
    -11.873  0.2287E+02  0.2031E+03
    -11.858  0.2304E+02  0.2035E+03
    -11.843  0.2320E+02  0.2038E+03
    -11.828  0.2334E+02  0.2042E+03
    -11.813  0.2346E+02  0.2045E+03
    -11.799  0.2357E+02  0.2049E+03
    -11.784  0.2366E+02  0.2052E+03
    -11.769  0.2374E+02  0.2056E+03
    -11.754  0.2381E+02  0.2059E+03
    -11.739  0.2386E+02  0.2063E+03
    -11.724  0.2391E+02  0.2066E+03
    -11.709  0.2395E+02  0.2070E+03
    -11.694  0.2399E+02  0.2074E+03
    -11.680  0.2403E+02  0.2077E+03
    -11.665  0.2408E+02  0.2081E+03
    -11.650  0.2413E+02  0.2084E+03
    -11.635  0.2419E+02  0.2088E+03