 250 250   0   0
  0.2640335E+02  0.2982000E-08  0.2213561E-08  0.1000000E-08  0.5000000E-15
  1.000000000000000E-004
  CAR 
 unknown system                          
      6.08482744    -25.30021158 2000     -1.21447359      1.00000000
    -25.300  0.0000E+00  0.0000E+00
    -25.285  0.0000E+00  0.0000E+00
    -25.269  0.0000E+00  0.0000E+00
    -25.253  0.0000E+00  0.0000E+00
    -25.237  0.0000E+00  0.0000E+00
    -25.222  0.0000E+00  0.0000E+00
    -25.206  0.0000E+00  0.0000E+00
    -25.190  0.0000E+00  0.0000E+00
    -25.175  0.0000E+00  0.0000E+00
    -25.159  0.0000E+00  0.0000E+00
    -25.143  0.0000E+00  0.0000E+00
    -25.128  0.0000E+00  0.0000E+00
    -25.112  0.0000E+00  0.0000E+00
    -25.096  0.0000E+00  0.0000E+00
    -25.080  0.0000E+00  0.0000E+00
    -25.065  0.0000E+00  0.0000E+00
    -25.049  0.0000E+00  0.0000E+00
    -25.033  0.0000E+00  0.0000E+00
    -25.018  0.0000E+00  0.0000E+00
    -25.002  0.0000E+00  0.0000E+00
    -24.986  0.0000E+00  0.0000E+00
    -24.971  0.0000E+00  0.0000E+00
    -24.955  0.0000E+00  0.0000E+00
    -24.939  0.0000E+00  0.0000E+00
    -24.923  0.0000E+00  0.0000E+00
    -24.908  0.0000E+00  0.0000E+00
    -24.892  0.0000E+00  0.0000E+00
    -24.876  0.0000E+00  0.0000E+00
    -24.861  0.0000E+00  0.0000E+00
    -24.845  0.0000E+00  0.0000E+00
    -24.829  0.0000E+00  0.0000E+00
    -24.814  0.0000E+00  0.0000E+00
    -24.798  0.0000E+00  0.0000E+00
    -24.782  0.0000E+00  0.0000E+00
    -24.766  0.0000E+00  0.0000E+00
    -24.751  0.0000E+00  0.0000E+00
    -24.735  0.0000E+00  0.0000E+00
    -24.719  0.0000E+00  0.0000E+00
    -24.704  0.0000E+00  0.0000E+00
    -24.688  0.0000E+00  0.0000E+00
    -24.672  0.0000E+00  0.0000E+00
    -24.656  0.0000E+00  0.0000E+00
    -24.641  0.0000E+00  0.0000E+00
    -24.625  0.0000E+00  0.0000E+00
    -24.609  0.0000E+00  0.0000E+00
    -24.594  0.0000E+00  0.0000E+00
    -24.578  0.0000E+00  0.0000E+00
    -24.562  0.0000E+00  0.0000E+00
    -24.547  0.0000E+00  0.0000E+00
    -24.531  0.0000E+00  0.0000E+00
    -24.515  0.0000E+00  0.0000E+00
    -24.499  0.0000E+00  0.0000E+00
    -24.484  0.7071E-14  0.1110E-15
    -24.468  0.0000E+00  0.1110E-15
    -24.452  0.1414E-13  0.3331E-15
    -24.437  0.3536E-13  0.8882E-15
    -24.421  0.9193E-13  0.2331E-14
    -24.405  0.2051E-12  0.5551E-14
    -24.390  0.4950E-12  0.1332E-13
    -24.374  0.1160E-11  0.3153E-13
    -24.358  0.2687E-11  0.7372E-13
    -24.342  0.6173E-11  0.1706E-12
    -24.327  0.1397E-10  0.3899E-12
    -24.311  0.3125E-10  0.8806E-12
    -24.295  0.6905E-10  0.1965E-11
    -24.280  0.1507E-09  0.4331E-11
    -24.264  0.3249E-09  0.9431E-11
    -24.248  0.6917E-09  0.2029E-10
    -24.233  0.1455E-08  0.4313E-10
    -24.217  0.3023E-08  0.9059E-10
    -24.201  0.6203E-08  0.1880E-09
    -24.185  0.1257E-07  0.3854E-09
    -24.170  0.2517E-07  0.7806E-09
    -24.154  0.4979E-07  0.1562E-08
    -24.138  0.9726E-07  0.3089E-08
    -24.123  0.1877E-06  0.6036E-08
    -24.107  0.3577E-06  0.1165E-07
    -24.091  0.6734E-06  0.2222E-07
    -24.076  0.1252E-05  0.4189E-07
    -24.060  0.2300E-05  0.7800E-07
    -24.044  0.4174E-05  0.1435E-06
    -24.028  0.7480E-05  0.2610E-06
    -24.013  0.1324E-04  0.4689E-06
    -23.997  0.2315E-04  0.8324E-06
    -23.981  0.3999E-04  0.1460E-05
    -23.966  0.6823E-04  0.2531E-05
    -23.950  0.1150E-03  0.4337E-05
    -23.934  0.1914E-03  0.7341E-05
    -23.919  0.3147E-03  0.1228E-04
    -23.903  0.5110E-03  0.2031E-04
    -23.887  0.8198E-03  0.3318E-04
    -23.871  0.1299E-02  0.5357E-04
    -23.856  0.2033E-02  0.8549E-04
    -23.840  0.3143E-02  0.1348E-03
    -23.824  0.4800E-02  0.2102E-03
    -23.809  0.7241E-02  0.3239E-03
    -23.793  0.1079E-01  0.4933E-03
    -23.777  0.1588E-01  0.7426E-03
    -23.762  0.2308E-01  0.1105E-02
    -23.746  0.3314E-01  0.1625E-02
    -23.730  0.4701E-01  0.2363E-02
    -23.714  0.6586E-01  0.3397E-02
    -23.699  0.9114E-01  0.4828E-02
    -23.683  0.1246E+00  0.6784E-02
    -23.667  0.1682E+00  0.9425E-02
    -23.652  0.2243E+00  0.1295E-01
    -23.636  0.2955E+00  0.1759E-01
    -23.620  0.3845E+00  0.2362E-01
    -23.605  0.4943E+00  0.3138E-01
    -23.589  0.6275E+00  0.4124E-01
    -23.573  0.7869E+00  0.5359E-01
    -23.557  0.9747E+00  0.6890E-01
    -23.542  0.1193E+01  0.8762E-01
    -23.526  0.1441E+01  0.1103E+00
    -23.510  0.1721E+01  0.1373E+00
    -23.495  0.2029E+01  0.1691E+00
    -23.479  0.2363E+01  0.2062E+00
    -23.463  0.2719E+01  0.2489E+00
    -23.448  0.3090E+01  0.2974E+00
    -23.432  0.3468E+01  0.3519E+00
    -23.416  0.3845E+01  0.4123E+00
    -23.400  0.4212E+01  0.4784E+00
    -23.385  0.4556E+01  0.5499E+00
    -23.369  0.4868E+01  0.6263E+00
    -23.353  0.5138E+01  0.7070E+00
    -23.338  0.5357E+01  0.7911E+00
    -23.322  0.5517E+01  0.8777E+00
    -23.306  0.5612E+01  0.9659E+00
    -23.291  0.5639E+01  0.1054E+01
    -23.275  0.5596E+01  0.1142E+01
    -23.259  0.5486E+01  0.1228E+01
    -23.243  0.5312E+01  0.1312E+01
    -23.228  0.5081E+01  0.1392E+01
    -23.212  0.4800E+01  0.1467E+01
    -23.196  0.4480E+01  0.1537E+01
    -23.181  0.4129E+01  0.1602E+01
    -23.165  0.3760E+01  0.1661E+01
    -23.149  0.3381E+01  0.1714E+01
    -23.134  0.3004E+01  0.1761E+01
    -23.118  0.2636E+01  0.1803E+01
    -23.102  0.2285E+01  0.1839E+01
    -23.086  0.1956E+01  0.1869E+01
    -23.071  0.1654E+01  0.1895E+01
    -23.055  0.1382E+01  0.1917E+01
    -23.039  0.1140E+01  0.1935E+01
    -23.024  0.9292E+00  0.1949E+01
    -23.008  0.7480E+00  0.1961E+01
    -22.992  0.5948E+00  0.1971E+01
    -22.977  0.4672E+00  0.1978E+01
    -22.961  0.3625E+00  0.1984E+01
    -22.945  0.2778E+00  0.1988E+01
    -22.929  0.2103E+00  0.1991E+01
    -22.914  0.1572E+00  0.1994E+01
    -22.898  0.1161E+00  0.1996E+01
    -22.882  0.8470E-01  0.1997E+01
    -22.867  0.6104E-01  0.1998E+01
    -22.851  0.4344E-01  0.1999E+01
    -22.835  0.3054E-01  0.1999E+01
    -22.820  0.2121E-01  0.1999E+01
    -22.804  0.1455E-01  0.2000E+01
    -22.788  0.9859E-02  0.2000E+01
    -22.772  0.6598E-02  0.2000E+01
    -22.757  0.4362E-02  0.2000E+01
    -22.741  0.2848E-02  0.2000E+01
    -22.725  0.1837E-02  0.2000E+01
    -22.710  0.1170E-02  0.2000E+01
    -22.694  0.7366E-03  0.2000E+01
    -22.678  0.4579E-03  0.2000E+01
    -22.663  0.2811E-03  0.2000E+01
    -22.647  0.1705E-03  0.2000E+01
    -22.631  0.1021E-03  0.2000E+01
    -22.615  0.6044E-04  0.2000E+01
    -22.600  0.3533E-04  0.2000E+01
    -22.584  0.2040E-04  0.2000E+01
    -22.568  0.1163E-04  0.2000E+01
    -22.553  0.6555E-05  0.2000E+01
    -22.537  0.3651E-05  0.2000E+01
    -22.521  0.2014E-05  0.2000E+01
    -22.506  0.1107E-05  0.2000E+01
    -22.490  0.6225E-06  0.2000E+01
    -22.474  0.3858E-06  0.2000E+01
    -22.458  0.3106E-06  0.2000E+01
    -22.443  0.3687E-06  0.2000E+01
    -22.427  0.5819E-06  0.2000E+01
    -22.411  0.1029E-05  0.2000E+01
    -22.396  0.1869E-05  0.2000E+01
    -22.380  0.3392E-05  0.2000E+01
    -22.364  0.6098E-05  0.2000E+01
    -22.349  0.1084E-04  0.2000E+01
    -22.333  0.1903E-04  0.2000E+01
    -22.317  0.3302E-04  0.2000E+01
    -22.301  0.5658E-04  0.2000E+01
    -22.286  0.9576E-04  0.2000E+01
    -22.270  0.1601E-03  0.2000E+01
    -22.254  0.2644E-03  0.2000E+01
    -22.239  0.4313E-03  0.2000E+01
    -22.223  0.6949E-03  0.2000E+01
    -22.207  0.1106E-02  0.2000E+01
    -22.192  0.1739E-02  0.2000E+01
    -22.176  0.2700E-02  0.2000E+01
    -22.160  0.4142E-02  0.2000E+01
    -22.144  0.6276E-02  0.2000E+01
    -22.129  0.9393E-02  0.2000E+01
    -22.113  0.1389E-01  0.2001E+01
    -22.097  0.2028E-01  0.2001E+01
    -22.082  0.2926E-01  0.2001E+01
    -22.066  0.4170E-01  0.2002E+01
    -22.050  0.5869E-01  0.2003E+01
    -22.035  0.8162E-01  0.2004E+01
    -22.019  0.1121E+00  0.2006E+01
    -22.003  0.1522E+00  0.2008E+01
    -21.987  0.2040E+00  0.2012E+01
    -21.972  0.2702E+00  0.2016E+01
    -21.956  0.3536E+00  0.2021E+01
    -21.940  0.4572E+00  0.2029E+01
    -21.925  0.5840E+00  0.2038E+01
    -21.909  0.7372E+00  0.2049E+01
    -21.893  0.9197E+00  0.2064E+01
    -21.878  0.1134E+01  0.2082E+01
    -21.862  0.1382E+01  0.2103E+01
    -21.846  0.1665E+01  0.2129E+01
    -21.830  0.1982E+01  0.2161E+01
    -21.815  0.2335E+01  0.2197E+01
    -21.799  0.2720E+01  0.2240E+01
    -21.783  0.3135E+01  0.2289E+01
    -21.768  0.3577E+01  0.2345E+01
    -21.752  0.4040E+01  0.2409E+01
    -21.736  0.4519E+01  0.2480E+01
    -21.721  0.5010E+01  0.2558E+01
    -21.705  0.5507E+01  0.2645E+01
    -21.689  0.6006E+01  0.2739E+01
    -21.673  0.6503E+01  0.2841E+01
    -21.658  0.6998E+01  0.2951E+01
    -21.642  0.7488E+01  0.3069E+01
    -21.626  0.7976E+01  0.3194E+01
    -21.611  0.8463E+01  0.3327E+01
    -21.595  0.8954E+01  0.3467E+01
    -21.579  0.9453E+01  0.3616E+01
    -21.564  0.9965E+01  0.3772E+01
    -21.548  0.1050E+02  0.3937E+01
    -21.532  0.1105E+02  0.4110E+01
    -21.516  0.1163E+02  0.4293E+01
    -21.501  0.1224E+02  0.4485E+01
    -21.485  0.1288E+02  0.4687E+01
    -21.469  0.1354E+02  0.4900E+01
    -21.454  0.1423E+02  0.5123E+01
    -21.438  0.1493E+02  0.5358E+01
    -21.422  0.1565E+02  0.5603E+01
    -21.407  0.1637E+02  0.5860E+01
    -21.391  0.1708E+02  0.6129E+01
    -21.375  0.1779E+02  0.6408E+01
    -21.359  0.1847E+02  0.6698E+01
    -21.344  0.1913E+02  0.6998E+01
    -21.328  0.1975E+02  0.7308E+01
    -21.312  0.2032E+02  0.7627E+01
    -21.297  0.2085E+02  0.7955E+01
    -21.281  0.2132E+02  0.8289E+01
    -21.265  0.2174E+02  0.8631E+01
    -21.250  0.2209E+02  0.8977E+01
    -21.234  0.2239E+02  0.9329E+01
    -21.218  0.2261E+02  0.9684E+01
    -21.202  0.2278E+02  0.1004E+02
    -21.187  0.2288E+02  0.1040E+02
    -21.171  0.2293E+02  0.1076E+02
    -21.155  0.2293E+02  0.1112E+02
    -21.140  0.2288E+02  0.1148E+02
    -21.124  0.2280E+02  0.1184E+02
    -21.108  0.2271E+02  0.1219E+02
    -21.093  0.2261E+02  0.1255E+02
    -21.077  0.2251E+02  0.1290E+02
    -21.061  0.2244E+02  0.1326E+02
    -21.045  0.2241E+02  0.1361E+02
    -21.030  0.2241E+02  0.1396E+02
    -21.014  0.2248E+02  0.1431E+02
    -20.998  0.2260E+02  0.1467E+02
    -20.983  0.2279E+02  0.1502E+02
    -20.967  0.2305E+02  0.1539E+02
    -20.951  0.2336E+02  0.1575E+02
    -20.936  0.2372E+02  0.1613E+02
    -20.920  0.2413E+02  0.1650E+02
    -20.904  0.2457E+02  0.1689E+02
    -20.888  0.2503E+02  0.1728E+02
    -20.873  0.2550E+02  0.1768E+02
    -20.857  0.2596E+02  0.1809E+02
    -20.841  0.2640E+02  0.1851E+02
    -20.826  0.2681E+02  0.1893E+02
    -20.810  0.2719E+02  0.1935E+02
    -20.794  0.2753E+02  0.1979E+02
    -20.779  0.2782E+02  0.2022E+02
    -20.763  0.2808E+02  0.2066E+02
    -20.747  0.2830E+02  0.2111E+02
    -20.731  0.2849E+02  0.2156E+02
    -20.716  0.2866E+02  0.2201E+02
    -20.700  0.2881E+02  0.2246E+02
    -20.684  0.2895E+02  0.2291E+02
    -20.669  0.2910E+02  0.2337E+02
    -20.653  0.2925E+02  0.2383E+02
    -20.637  0.2941E+02  0.2429E+02
    -20.622  0.2960E+02  0.2475E+02
    -20.606  0.2981E+02  0.2522E+02
    -20.590  0.3004E+02  0.2569E+02
    -20.574  0.3029E+02  0.2617E+02
    -20.559  0.3057E+02  0.2665E+02
    -20.543  0.3086E+02  0.2713E+02
    -20.527  0.3117E+02  0.2762E+02
    -20.512  0.3148E+02  0.2812E+02
    -20.496  0.3181E+02  0.2862E+02
    -20.480  0.3213E+02  0.2912E+02
    -20.464  0.3246E+02  0.2963E+02
    -20.449  0.3278E+02  0.3015E+02
    -20.433  0.3309E+02  0.3067E+02
    -20.417  0.3339E+02  0.3119E+02
    -20.402  0.3369E+02  0.3172E+02
    -20.386  0.3398E+02  0.3225E+02
    -20.370  0.3426E+02  0.3279E+02
    -20.355  0.3453E+02  0.3333E+02
    -20.339  0.3480E+02  0.3388E+02
    -20.323  0.3506E+02  0.3443E+02
    -20.307  0.3530E+02  0.3498E+02
    -20.292  0.3555E+02  0.3554E+02
    -20.276  0.3578E+02  0.3610E+02
    -20.260  0.3600E+02  0.3667E+02
    -20.245  0.3621E+02  0.3724E+02
    -20.229  0.3641E+02  0.3781E+02
    -20.213  0.3660E+02  0.3838E+02
    -20.198  0.3677E+02  0.3896E+02
    -20.182  0.3691E+02  0.3954E+02
    -20.166  0.3704E+02  0.4012E+02
    -20.150  0.3715E+02  0.4070E+02
    -20.135  0.3724E+02  0.4129E+02
    -20.119  0.3730E+02  0.4188E+02
    -20.103  0.3734E+02  0.4246E+02
    -20.088  0.3735E+02  0.4305E+02
    -20.072  0.3734E+02  0.4363E+02
    -20.056  0.3731E+02  0.4422E+02
    -20.041  0.3726E+02  0.4480E+02
    -20.025  0.3719E+02  0.4539E+02
    -20.009  0.3711E+02  0.4597E+02
    -19.993  0.3701E+02  0.4655E+02
    -19.978  0.3691E+02  0.4713E+02
    -19.962  0.3680E+02  0.4771E+02
    -19.946  0.3668E+02  0.4829E+02
    -19.931  0.3658E+02  0.4886E+02
    -19.915  0.3647E+02  0.4943E+02
    -19.899  0.3638E+02  0.5000E+02
    -19.884  0.3629E+02  0.5057E+02
    -19.868  0.3622E+02  0.5114E+02
    -19.852  0.3616E+02  0.5171E+02
    -19.836  0.3612E+02  0.5228E+02
    -19.821  0.3610E+02  0.5284E+02
    -19.805  0.3610E+02  0.5341E+02
    -19.789  0.3611E+02  0.5398E+02
    -19.774  0.3614E+02  0.5454E+02
    -19.758  0.3618E+02  0.5511E+02
    -19.742  0.3623E+02  0.5568E+02
    -19.727  0.3630E+02  0.5625E+02
    -19.711  0.3638E+02  0.5682E+02
    -19.695  0.3646E+02  0.5739E+02
    -19.679  0.3654E+02  0.5797E+02
    -19.664  0.3663E+02  0.5854E+02
    -19.648  0.3671E+02  0.5912E+02
    -19.632  0.3679E+02  0.5970E+02
    -19.617  0.3686E+02  0.6028E+02
    -19.601  0.3692E+02  0.6086E+02
    -19.585  0.3696E+02  0.6144E+02
    -19.570  0.3700E+02  0.6202E+02
    -19.554  0.3702E+02  0.6260E+02
    -19.538  0.3702E+02  0.6318E+02
    -19.522  0.3702E+02  0.6376E+02
    -19.507  0.3700E+02  0.6434E+02
    -19.491  0.3697E+02  0.6492E+02
    -19.475  0.3694E+02  0.6550E+02
    -19.460  0.3691E+02  0.6608E+02
    -19.444  0.3689E+02  0.6666E+02
    -19.428  0.3687E+02  0.6724E+02
    -19.413  0.3687E+02  0.6782E+02
    -19.397  0.3688E+02  0.6840E+02
    -19.381  0.3691E+02  0.6898E+02
    -19.365  0.3697E+02  0.6956E+02
    -19.350  0.3705E+02  0.7014E+02
    -19.334  0.3715E+02  0.7072E+02
    -19.318  0.3728E+02  0.7131E+02
    -19.303  0.3742E+02  0.7190E+02
    -19.287  0.3757E+02  0.7249E+02
    -19.271  0.3773E+02  0.7308E+02
    -19.256  0.3790E+02  0.7367E+02
    -19.240  0.3805E+02  0.7427E+02
    -19.224  0.3820E+02  0.7487E+02
    -19.208  0.3833E+02  0.7547E+02
    -19.193  0.3844E+02  0.7608E+02
    -19.177  0.3852E+02  0.7668E+02
    -19.161  0.3857E+02  0.7729E+02
    -19.146  0.3859E+02  0.7789E+02
    -19.130  0.3858E+02  0.7850E+02
    -19.114  0.3853E+02  0.7910E+02
    -19.099  0.3846E+02  0.7971E+02
    -19.083  0.3835E+02  0.8031E+02
    -19.067  0.3822E+02  0.8091E+02
    -19.051  0.3807E+02  0.8151E+02
    -19.036  0.3790E+02  0.8210E+02
    -19.020  0.3771E+02  0.8269E+02
    -19.004  0.3752E+02  0.8328E+02
    -18.989  0.3732E+02  0.8387E+02
    -18.973  0.3713E+02  0.8445E+02
    -18.957  0.3694E+02  0.8503E+02
    -18.942  0.3676E+02  0.8561E+02
    -18.926  0.3660E+02  0.8618E+02
    -18.910  0.3647E+02  0.8676E+02
    -18.894  0.3636E+02  0.8733E+02
    -18.879  0.3628E+02  0.8790E+02
    -18.863  0.3624E+02  0.8846E+02
    -18.847  0.3624E+02  0.8903E+02
    -18.832  0.3628E+02  0.8960E+02
    -18.816  0.3636E+02  0.9017E+02
    -18.800  0.3648E+02  0.9075E+02
    -18.785  0.3664E+02  0.9132E+02
    -18.769  0.3684E+02  0.9190E+02
    -18.753  0.3707E+02  0.9248E+02
    -18.737  0.3731E+02  0.9307E+02
    -18.722  0.3758E+02  0.9366E+02
    -18.706  0.3786E+02  0.9425E+02
    -18.690  0.3813E+02  0.9485E+02
    -18.675  0.3840E+02  0.9545E+02
    -18.659  0.3866E+02  0.9606E+02
    -18.643  0.3889E+02  0.9667E+02
    -18.628  0.3910E+02  0.9729E+02
    -18.612  0.3927E+02  0.9790E+02
    -18.596  0.3941E+02  0.9852E+02
    -18.580  0.3951E+02  0.9914E+02
    -18.565  0.3957E+02  0.9976E+02
    -18.549  0.3959E+02  0.1004E+03
    -18.533  0.3958E+02  0.1010E+03
    -18.518  0.3953E+02  0.1016E+03
    -18.502  0.3946E+02  0.1022E+03
    -18.486  0.3936E+02  0.1029E+03
    -18.471  0.3925E+02  0.1035E+03
    -18.455  0.3912E+02  0.1041E+03
    -18.439  0.3899E+02  0.1047E+03
    -18.423  0.3885E+02  0.1053E+03
    -18.408  0.3871E+02  0.1059E+03
    -18.392  0.3858E+02  0.1065E+03
    -18.376  0.3845E+02  0.1071E+03
    -18.361  0.3834E+02  0.1077E+03
    -18.345  0.3823E+02  0.1083E+03
    -18.329  0.3814E+02  0.1089E+03
    -18.314  0.3806E+02  0.1095E+03
    -18.298  0.3800E+02  0.1101E+03
    -18.282  0.3794E+02  0.1107E+03
    -18.266  0.3789E+02  0.1113E+03
    -18.251  0.3785E+02  0.1119E+03
    -18.235  0.3782E+02  0.1125E+03
    -18.219  0.3779E+02  0.1131E+03
    -18.204  0.3777E+02  0.1137E+03
    -18.188  0.3774E+02  0.1143E+03
    -18.172  0.3772E+02  0.1149E+03
    -18.157  0.3770E+02  0.1155E+03
    -18.141  0.3768E+02  0.1161E+03
    -18.125  0.3766E+02  0.1167E+03
    -18.109  0.3763E+02  0.1172E+03
    -18.094  0.3761E+02  0.1178E+03
    -18.078  0.3758E+02  0.1184E+03
    -18.062  0.3754E+02  0.1190E+03
    -18.047  0.3750E+02  0.1196E+03
    -18.031  0.3745E+02  0.1202E+03
    -18.015  0.3740E+02  0.1208E+03
    -18.000  0.3734E+02  0.1214E+03
    -17.984  0.3727E+02  0.1219E+03
    -17.968  0.3720E+02  0.1225E+03
    -17.952  0.3712E+02  0.1231E+03
    -17.937  0.3704E+02  0.1237E+03
    -17.921  0.3696E+02  0.1243E+03
    -17.905  0.3688E+02  0.1249E+03
    -17.890  0.3681E+02  0.1254E+03
    -17.874  0.3675E+02  0.1260E+03
    -17.858  0.3671E+02  0.1266E+03
    -17.843  0.3668E+02  0.1272E+03
    -17.827  0.3669E+02  0.1277E+03
    -17.811  0.3671E+02  0.1283E+03
    -17.795  0.3677E+02  0.1289E+03
    -17.780  0.3686E+02  0.1295E+03
    -17.764  0.3699E+02  0.1301E+03
    -17.748  0.3714E+02  0.1306E+03
    -17.733  0.3733E+02  0.1312E+03
    -17.717  0.3754E+02  0.1318E+03
    -17.701  0.3778E+02  0.1324E+03
    -17.686  0.3804E+02  0.1330E+03
    -17.670  0.3831E+02  0.1336E+03
    -17.654  0.3859E+02  0.1342E+03
    -17.638  0.3887E+02  0.1348E+03
    -17.623  0.3915E+02  0.1354E+03
    -17.607  0.3941E+02  0.1361E+03
    -17.591  0.3966E+02  0.1367E+03
    -17.576  0.3988E+02  0.1373E+03
    -17.560  0.4008E+02  0.1379E+03
    -17.544  0.4025E+02  0.1386E+03
    -17.529  0.4038E+02  0.1392E+03
    -17.513  0.4048E+02  0.1398E+03
    -17.497  0.4055E+02  0.1405E+03
    -17.481  0.4059E+02  0.1411E+03
    -17.466  0.4060E+02  0.1417E+03
    -17.450  0.4059E+02  0.1424E+03
    -17.434  0.4057E+02  0.1430E+03
    -17.419  0.4054E+02  0.1437E+03
    -17.403  0.4050E+02  0.1443E+03
    -17.387  0.4047E+02  0.1449E+03
    -17.372  0.4043E+02  0.1456E+03
    -17.356  0.4041E+02  0.1462E+03
    -17.340  0.4040E+02  0.1468E+03
    -17.324  0.4040E+02  0.1475E+03
    -17.309  0.4041E+02  0.1481E+03
    -17.293  0.4043E+02  0.1487E+03
    -17.277  0.4046E+02  0.1494E+03
    -17.262  0.4050E+02  0.1500E+03
    -17.246  0.4054E+02  0.1506E+03
    -17.230  0.4058E+02  0.1513E+03
    -17.215  0.4061E+02  0.1519E+03
    -17.199  0.4063E+02  0.1526E+03
    -17.183  0.4064E+02  0.1532E+03
    -17.167  0.4064E+02  0.1538E+03
    -17.152  0.4062E+02  0.1545E+03
    -17.136  0.4058E+02  0.1551E+03
    -17.120  0.4053E+02  0.1557E+03
    -17.105  0.4046E+02  0.1564E+03
    -17.089  0.4038E+02  0.1570E+03
    -17.073  0.4029E+02  0.1576E+03
    -17.058  0.4019E+02  0.1583E+03
    -17.042  0.4010E+02  0.1589E+03
    -17.026  0.4001E+02  0.1595E+03
    -17.010  0.3993E+02  0.1602E+03
    -16.995  0.3987E+02  0.1608E+03
    -16.979  0.3982E+02  0.1614E+03
    -16.963  0.3979E+02  0.1620E+03
    -16.948  0.3979E+02  0.1627E+03
    -16.932  0.3980E+02  0.1633E+03
    -16.916  0.3984E+02  0.1639E+03
    -16.901  0.3990E+02  0.1645E+03
    -16.885  0.3998E+02  0.1652E+03
    -16.869  0.4007E+02  0.1658E+03
    -16.853  0.4017E+02  0.1664E+03
    -16.838  0.4028E+02  0.1671E+03
    -16.822  0.4039E+02  0.1677E+03
    -16.806  0.4050E+02  0.1683E+03
    -16.791  0.4060E+02  0.1690E+03
    -16.775  0.4069E+02  0.1696E+03
    -16.759  0.4076E+02  0.1702E+03
    -16.744  0.4083E+02  0.1709E+03
    -16.728  0.4088E+02  0.1715E+03
    -16.712  0.4091E+02  0.1722E+03
    -16.696  0.4094E+02  0.1728E+03
    -16.681  0.4096E+02  0.1735E+03
    -16.665  0.4097E+02  0.1741E+03
    -16.649  0.4098E+02  0.1747E+03
    -16.634  0.4100E+02  0.1754E+03
    -16.618  0.4103E+02  0.1760E+03
    -16.602  0.4106E+02  0.1767E+03
    -16.587  0.4112E+02  0.1773E+03
    -16.571  0.4119E+02  0.1780E+03
    -16.555  0.4129E+02  0.1786E+03
    -16.539  0.4140E+02  0.1793E+03
    -16.524  0.4153E+02  0.1799E+03
    -16.508  0.4168E+02  0.1806E+03
    -16.492  0.4185E+02  0.1812E+03
    -16.477  0.4203E+02  0.1819E+03
    -16.461  0.4221E+02  0.1825E+03
    -16.445  0.4240E+02  0.1832E+03
    -16.430  0.4258E+02  0.1839E+03
    -16.414  0.4275E+02  0.1846E+03
    -16.398  0.4291E+02  0.1852E+03
    -16.382  0.4305E+02  0.1859E+03
    -16.367  0.4317E+02  0.1866E+03
    -16.351  0.4328E+02  0.1873E+03
    -16.335  0.4335E+02  0.1879E+03
    -16.320  0.4341E+02  0.1886E+03
    -16.304  0.4345E+02  0.1893E+03
    -16.288  0.4347E+02  0.1900E+03
    -16.272  0.4348E+02  0.1907E+03
    -16.257  0.4348E+02  0.1914E+03
    -16.241  0.4348E+02  0.1920E+03
    -16.225  0.4348E+02  0.1927E+03
    -16.210  0.4349E+02  0.1934E+03
    -16.194  0.4351E+02  0.1941E+03
    -16.178  0.4355E+02  0.1948E+03
    -16.163  0.4360E+02  0.1955E+03
    -16.147  0.4367E+02  0.1961E+03
    -16.131  0.4376E+02  0.1968E+03
    -16.115  0.4386E+02  0.1975E+03
    -16.100  0.4397E+02  0.1982E+03
    -16.084  0.4408E+02  0.1989E+03
    -16.068  0.4420E+02  0.1996E+03
    -16.053  0.4431E+02  0.2003E+03
    -16.037  0.4441E+02  0.2010E+03
    -16.021  0.4450E+02  0.2017E+03
    -16.006  0.4456E+02  0.2024E+03
    -15.990  0.4459E+02  0.2031E+03
    -15.974  0.4460E+02  0.2038E+03
    -15.958  0.4457E+02  0.2045E+03
    -15.943  0.4451E+02  0.2052E+03
    -15.927  0.4442E+02  0.2059E+03
    -15.911  0.4430E+02  0.2066E+03
    -15.896  0.4414E+02  0.2073E+03
    -15.880  0.4395E+02  0.2080E+03
    -15.864  0.4372E+02  0.2086E+03
    -15.849  0.4347E+02  0.2093E+03
    -15.833  0.4319E+02  0.2100E+03
    -15.817  0.4289E+02  0.2107E+03
    -15.801  0.4255E+02  0.2113E+03
    -15.786  0.4218E+02  0.2120E+03
    -15.770  0.4178E+02  0.2127E+03
    -15.754  0.4134E+02  0.2133E+03
    -15.739  0.4087E+02  0.2140E+03
    -15.723  0.4036E+02  0.2146E+03
    -15.707  0.3981E+02  0.2152E+03
    -15.692  0.3923E+02  0.2158E+03
    -15.676  0.3861E+02  0.2164E+03
    -15.660  0.3796E+02  0.2170E+03
    -15.644  0.3728E+02  0.2176E+03
    -15.629  0.3658E+02  0.2182E+03
    -15.613  0.3587E+02  0.2188E+03
    -15.597  0.3515E+02  0.2193E+03
    -15.582  0.3444E+02  0.2198E+03
    -15.566  0.3375E+02  0.2204E+03
    -15.550  0.3309E+02  0.2209E+03
    -15.535  0.3247E+02  0.2214E+03
    -15.519  0.3189E+02  0.2219E+03
    -15.503  0.3138E+02  0.2224E+03
    -15.487  0.3093E+02  0.2229E+03
    -15.472  0.3056E+02  0.2234E+03
    -15.456  0.3027E+02  0.2238E+03
    -15.440  0.3005E+02  0.2243E+03
    -15.425  0.2992E+02  0.2248E+03
    -15.409  0.2986E+02  0.2252E+03
    -15.393  0.2987E+02  0.2257E+03
    -15.378  0.2995E+02  0.2262E+03
    -15.362  0.3009E+02  0.2267E+03
    -15.346  0.3028E+02  0.2271E+03
    -15.330  0.3052E+02  0.2276E+03
    -15.315  0.3079E+02  0.2281E+03
    -15.299  0.3109E+02  0.2286E+03
    -15.283  0.3141E+02  0.2291E+03
    -15.268  0.3175E+02  0.2296E+03
    -15.252  0.3209E+02  0.2301E+03
    -15.236  0.3243E+02  0.2306E+03
    -15.221  0.3277E+02  0.2311E+03
    -15.205  0.3310E+02  0.2316E+03
    -15.189  0.3342E+02  0.2322E+03
    -15.173  0.3373E+02  0.2327E+03
    -15.158  0.3402E+02  0.2332E+03
    -15.142  0.3430E+02  0.2338E+03
    -15.126  0.3455E+02  0.2343E+03
    -15.111  0.3479E+02  0.2348E+03
    -15.095  0.3500E+02  0.2354E+03
    -15.079  0.3520E+02  0.2359E+03
    -15.064  0.3537E+02  0.2365E+03
    -15.048  0.3552E+02  0.2371E+03
    -15.032  0.3566E+02  0.2376E+03
    -15.016  0.3577E+02  0.2382E+03
    -15.001  0.3586E+02  0.2387E+03
    -14.985  0.3594E+02  0.2393E+03
    -14.969  0.3599E+02  0.2399E+03
    -14.954  0.3602E+02  0.2404E+03
    -14.938  0.3603E+02  0.2410E+03
    -14.922  0.3601E+02  0.2416E+03
    -14.907  0.3598E+02  0.2421E+03
    -14.891  0.3591E+02  0.2427E+03
    -14.875  0.3583E+02  0.2433E+03
    -14.859  0.3573E+02  0.2438E+03
    -14.844  0.3560E+02  0.2444E+03
    -14.828  0.3546E+02  0.2449E+03
    -14.812  0.3531E+02  0.2455E+03
    -14.797  0.3515E+02  0.2460E+03
    -14.781  0.3498E+02  0.2466E+03
    -14.765  0.3482E+02  0.2471E+03
    -14.750  0.3467E+02  0.2477E+03
    -14.734  0.3454E+02  0.2482E+03
    -14.718  0.3444E+02  0.2488E+03
    -14.702  0.3436E+02  0.2493E+03
    -14.687  0.3433E+02  0.2498E+03
    -14.671  0.3434E+02  0.2504E+03
    -14.655  0.3440E+02  0.2509E+03
    -14.640  0.3451E+02  0.2515E+03
    -14.624  0.3468E+02  0.2520E+03
    -14.608  0.3490E+02  0.2526E+03
    -14.593  0.3517E+02  0.2531E+03
    -14.577  0.3549E+02  0.2537E+03
    -14.561  0.3585E+02  0.2542E+03
    -14.545  0.3623E+02  0.2548E+03
    -14.530  0.3665E+02  0.2554E+03
    -14.514  0.3707E+02  0.2560E+03
    -14.498  0.3750E+02  0.2565E+03
    -14.483  0.3792E+02  0.2571E+03
    -14.467  0.3833E+02  0.2577E+03
    -14.451  0.3870E+02  0.2583E+03
    -14.436  0.3905E+02  0.2590E+03
    -14.420  0.3936E+02  0.2596E+03
    -14.404  0.3963E+02  0.2602E+03
    -14.388  0.3985E+02  0.2608E+03
    -14.373  0.4003E+02  0.2615E+03
    -14.357  0.4018E+02  0.2621E+03
    -14.341  0.4028E+02  0.2627E+03
    -14.326  0.4035E+02  0.2634E+03
    -14.310  0.4040E+02  0.2640E+03
    -14.294  0.4042E+02  0.2646E+03
    -14.279  0.4043E+02  0.2653E+03
    -14.263  0.4043E+02  0.2659E+03
    -14.247  0.4042E+02  0.2665E+03
    -14.231  0.4041E+02  0.2672E+03
    -14.216  0.4041E+02  0.2678E+03
    -14.200  0.4041E+02  0.2684E+03
    -14.184  0.4042E+02  0.2691E+03
    -14.169  0.4044E+02  0.2697E+03
    -14.153  0.4048E+02  0.2703E+03
    -14.137  0.4052E+02  0.2710E+03
    -14.122  0.4057E+02  0.2716E+03
    -14.106  0.4063E+02  0.2722E+03
    -14.090  0.4070E+02  0.2729E+03
    -14.074  0.4078E+02  0.2735E+03
    -14.059  0.4086E+02  0.2742E+03
    -14.043  0.4094E+02  0.2748E+03
    -14.027  0.4102E+02  0.2755E+03
    -14.012  0.4111E+02  0.2761E+03
    -13.996  0.4120E+02  0.2767E+03
    -13.980  0.4130E+02  0.2774E+03
    -13.965  0.4139E+02  0.2780E+03
    -13.949  0.4150E+02  0.2787E+03
    -13.933  0.4161E+02  0.2793E+03
    -13.917  0.4174E+02  0.2800E+03
    -13.902  0.4187E+02  0.2807E+03
    -13.886  0.4201E+02  0.2813E+03
    -13.870  0.4217E+02  0.2820E+03
    -13.855  0.4233E+02  0.2826E+03
    -13.839  0.4249E+02  0.2833E+03
    -13.823  0.4266E+02  0.2840E+03
    -13.808  0.4282E+02  0.2847E+03
    -13.792  0.4296E+02  0.2853E+03
    -13.776  0.4310E+02  0.2860E+03
    -13.760  0.4321E+02  0.2867E+03
    -13.745  0.4329E+02  0.2874E+03
    -13.729  0.4334E+02  0.2880E+03
    -13.713  0.4336E+02  0.2887E+03
    -13.698  0.4333E+02  0.2894E+03
    -13.682  0.4327E+02  0.2901E+03
    -13.666  0.4316E+02  0.2908E+03
    -13.651  0.4302E+02  0.2914E+03
    -13.635  0.4285E+02  0.2921E+03
    -13.619  0.4264E+02  0.2928E+03
    -13.603  0.4243E+02  0.2934E+03
    -13.588  0.4220E+02  0.2941E+03
    -13.572  0.4196E+02  0.2948E+03
    -13.556  0.4174E+02  0.2954E+03
    -13.541  0.4153E+02  0.2961E+03
    -13.525  0.4134E+02  0.2967E+03
    -13.509  0.4118E+02  0.2974E+03
    -13.494  0.4106E+02  0.2980E+03
    -13.478  0.4097E+02  0.2987E+03
    -13.462  0.4092E+02  0.2993E+03
    -13.446  0.4091E+02  0.2999E+03
    -13.431  0.4094E+02  0.3006E+03
    -13.415  0.4101E+02  0.3012E+03
    -13.399  0.4110E+02  0.3019E+03
    -13.384  0.4122E+02  0.3025E+03
    -13.368  0.4137E+02  0.3032E+03
    -13.352  0.4152E+02  0.3038E+03
    -13.337  0.4169E+02  0.3045E+03
    -13.321  0.4186E+02  0.3051E+03
    -13.305  0.4202E+02  0.3058E+03
    -13.289  0.4218E+02  0.3065E+03
    -13.274  0.4233E+02  0.3071E+03
    -13.258  0.4246E+02  0.3078E+03
    -13.242  0.4257E+02  0.3085E+03
    -13.227  0.4266E+02  0.3091E+03
    -13.211  0.4272E+02  0.3098E+03
    -13.195  0.4276E+02  0.3105E+03
    -13.180  0.4278E+02  0.3111E+03
    -13.164  0.4277E+02  0.3118E+03
    -13.148  0.4273E+02  0.3125E+03
    -13.132  0.4267E+02  0.3132E+03
    -13.117  0.4258E+02  0.3138E+03
    -13.101  0.4247E+02  0.3145E+03
    -13.085  0.4234E+02  0.3152E+03
    -13.070  0.4219E+02  0.3158E+03
    -13.054  0.4203E+02  0.3165E+03
    -13.038  0.4186E+02  0.3171E+03
    -13.023  0.4168E+02  0.3178E+03
    -13.007  0.4150E+02  0.3184E+03
    -12.991  0.4131E+02  0.3191E+03
    -12.975  0.4113E+02  0.3197E+03
    -12.960  0.4096E+02  0.3204E+03
    -12.944  0.4080E+02  0.3210E+03
    -12.928  0.4066E+02  0.3217E+03
    -12.913  0.4052E+02  0.3223E+03
    -12.897  0.4041E+02  0.3229E+03
    -12.881  0.4031E+02  0.3236E+03
    -12.866  0.4023E+02  0.3242E+03
    -12.850  0.4015E+02  0.3248E+03
    -12.834  0.4009E+02  0.3255E+03
    -12.818  0.4003E+02  0.3261E+03
    -12.803  0.3997E+02  0.3267E+03
    -12.787  0.3991E+02  0.3273E+03
    -12.771  0.3983E+02  0.3280E+03
    -12.756  0.3974E+02  0.3286E+03
    -12.740  0.3964E+02  0.3292E+03
    -12.724  0.3951E+02  0.3298E+03
    -12.709  0.3936E+02  0.3304E+03
    -12.693  0.3918E+02  0.3311E+03
    -12.677  0.3898E+02  0.3317E+03
    -12.661  0.3876E+02  0.3323E+03
    -12.646  0.3852E+02  0.3329E+03
    -12.630  0.3826E+02  0.3335E+03
    -12.614  0.3799E+02  0.3341E+03
    -12.599  0.3771E+02  0.3347E+03
    -12.583  0.3743E+02  0.3353E+03
    -12.567  0.3715E+02  0.3358E+03
    -12.552  0.3689E+02  0.3364E+03
    -12.536  0.3665E+02  0.3370E+03
    -12.520  0.3643E+02  0.3376E+03
    -12.504  0.3624E+02  0.3381E+03
    -12.489  0.3609E+02  0.3387E+03
    -12.473  0.3598E+02  0.3393E+03
    -12.457  0.3592E+02  0.3398E+03
    -12.442  0.3590E+02  0.3404E+03
    -12.426  0.3592E+02  0.3410E+03
    -12.410  0.3599E+02  0.3415E+03
    -12.395  0.3610E+02  0.3421E+03
    -12.379  0.3624E+02  0.3427E+03
    -12.363  0.3642E+02  0.3432E+03
    -12.347  0.3662E+02  0.3438E+03