  94  94   0   0
  0.2675112E+02  0.1704000E-08  0.1475707E-08  0.1000000E-08  0.5000000E-15
  1.000000000000000E-004
  CAR 
 unknown system                          
      5.90958088    -23.55567970 2000     -1.56380248      1.00000000
    -23.556  0.0000E+00  0.0000E+00
    -23.541  0.0000E+00  0.0000E+00
    -23.526  0.0000E+00  0.0000E+00
    -23.511  0.0000E+00  0.0000E+00
    -23.497  0.0000E+00  0.0000E+00
    -23.482  0.0000E+00  0.0000E+00
    -23.467  0.0000E+00  0.0000E+00
    -23.452  0.0000E+00  0.0000E+00
    -23.438  0.0000E+00  0.0000E+00
    -23.423  0.0000E+00  0.0000E+00
    -23.408  0.0000E+00  0.0000E+00
    -23.394  0.0000E+00  0.0000E+00
    -23.379  0.0000E+00  0.0000E+00
    -23.364  0.0000E+00  0.0000E+00
    -23.349  0.0000E+00  0.0000E+00
    -23.335  0.0000E+00  0.0000E+00
    -23.320  0.0000E+00  0.0000E+00
    -23.305  0.0000E+00  0.0000E+00
    -23.290  0.0000E+00  0.0000E+00
    -23.276  0.0000E+00  0.0000E+00
    -23.261  0.0000E+00  0.0000E+00
    -23.246  0.0000E+00  0.0000E+00
    -23.231  0.0000E+00  0.0000E+00
    -23.217  0.0000E+00  0.0000E+00
    -23.202  0.0000E+00  0.0000E+00
    -23.187  0.0000E+00  0.0000E+00
    -23.172  0.0000E+00  0.0000E+00
    -23.158  0.0000E+00  0.0000E+00
    -23.143  0.0000E+00  0.0000E+00
    -23.128  0.0000E+00  0.0000E+00
    -23.113  0.0000E+00  0.0000E+00
    -23.099  0.0000E+00  0.0000E+00
    -23.084  0.0000E+00  0.0000E+00
    -23.069  0.0000E+00  0.0000E+00
    -23.055  0.0000E+00  0.0000E+00
    -23.040  0.0000E+00  0.0000E+00
    -23.025  0.0000E+00  0.0000E+00
    -23.010  0.0000E+00  0.0000E+00
    -22.996  0.0000E+00  0.0000E+00
    -22.981  0.0000E+00  0.0000E+00
    -22.966  0.0000E+00  0.0000E+00
    -22.951  0.0000E+00  0.0000E+00
    -22.937  0.0000E+00  0.0000E+00
    -22.922  0.0000E+00  0.0000E+00
    -22.907  0.0000E+00  0.0000E+00
    -22.892  0.0000E+00  0.0000E+00
    -22.878  0.0000E+00  0.0000E+00
    -22.863  0.0000E+00  0.0000E+00
    -22.848  0.0000E+00  0.0000E+00
    -22.833  0.0000E+00  0.0000E+00
    -22.819  0.0000E+00  0.0000E+00
    -22.804  0.0000E+00  0.0000E+00
    -22.789  0.0000E+00  0.0000E+00
    -22.774  0.0000E+00  0.0000E+00
    -22.760  0.0000E+00  0.0000E+00
    -22.745  0.0000E+00  0.0000E+00
    -22.730  0.5858E-14  0.8635E-16
    -22.715  0.5858E-14  0.1727E-15
    -22.701  0.1590E-13  0.4071E-15
    -22.686  0.3431E-13  0.9129E-15
    -22.671  0.8369E-13  0.2146E-14
    -22.657  0.1850E-12  0.4873E-14
    -22.642  0.4218E-12  0.1109E-13
    -22.627  0.9457E-12  0.2503E-13
    -22.612  0.2090E-11  0.5583E-13
    -22.598  0.4568E-11  0.1232E-12
    -22.583  0.9886E-11  0.2689E-12
    -22.568  0.2116E-10  0.5808E-12
    -22.553  0.4479E-10  0.1241E-11
    -22.539  0.9382E-10  0.2624E-11
    -22.524  0.1944E-09  0.5489E-11
    -22.509  0.3983E-09  0.1136E-10
    -22.494  0.8075E-09  0.2326E-10
    -22.480  0.1619E-08  0.4713E-10
    -22.465  0.3212E-08  0.9448E-10
    -22.450  0.6304E-08  0.1874E-09
    -22.435  0.1224E-07  0.3678E-09
    -22.421  0.2350E-07  0.7141E-09
    -22.406  0.4463E-07  0.1372E-08
    -22.391  0.8387E-07  0.2608E-08
    -22.376  0.1559E-06  0.4906E-08
    -22.362  0.2866E-06  0.9131E-08
    -22.347  0.5214E-06  0.1682E-07
    -22.332  0.9380E-06  0.3064E-07
    -22.318  0.1670E-05  0.5525E-07
    -22.303  0.2939E-05  0.9858E-07
    -22.288  0.5119E-05  0.1740E-06
    -22.273  0.8820E-05  0.3040E-06
    -22.259  0.1503E-04  0.5256E-06
    -22.244  0.2534E-04  0.8991E-06
    -22.229  0.4226E-04  0.1522E-05
    -22.214  0.6971E-04  0.2550E-05
    -22.200  0.1138E-03  0.4227E-05
    -22.185  0.1837E-03  0.6934E-05
    -22.170  0.2933E-03  0.1126E-04
    -22.155  0.4633E-03  0.1808E-04
    -22.141  0.7239E-03  0.2875E-04
    -22.126  0.1119E-02  0.4525E-04
    -22.111  0.1711E-02  0.7047E-04
    -22.096  0.2588E-02  0.1086E-03
    -22.082  0.3872E-02  0.1657E-03
    -22.067  0.5731E-02  0.2502E-03
    -22.052  0.8392E-02  0.3739E-03
    -22.037  0.1215E-01  0.5530E-03
    -22.023  0.1741E-01  0.8097E-03
    -22.008  0.2468E-01  0.1174E-02
    -21.993  0.3461E-01  0.1684E-02
    -21.978  0.4800E-01  0.2391E-02
    -21.964  0.6585E-01  0.3362E-02
    -21.949  0.8938E-01  0.4679E-02
    -21.934  0.1200E+00  0.6448E-02
    -21.920  0.1594E+00  0.8798E-02
    -21.905  0.2094E+00  0.1189E-01
    -21.890  0.2723E+00  0.1590E-01
    -21.875  0.3501E+00  0.2106E-01
    -21.861  0.4454E+00  0.2762E-01
    -21.846  0.5605E+00  0.3589E-01
    -21.831  0.6980E+00  0.4617E-01
    -21.816  0.8598E+00  0.5885E-01
    -21.802  0.1048E+01  0.7430E-01
    -21.787  0.1264E+01  0.9292E-01
    -21.772  0.1508E+01  0.1152E+00
    -21.757  0.1781E+01  0.1414E+00
    -21.743  0.2081E+01  0.1721E+00
    -21.728  0.2406E+01  0.2075E+00
    -21.713  0.2754E+01  0.2481E+00
    -21.698  0.3121E+01  0.2941E+00
    -21.684  0.3501E+01  0.3457E+00
    -21.669  0.3889E+01  0.4031E+00
    -21.654  0.4279E+01  0.4661E+00
    -21.639  0.4663E+01  0.5349E+00
    -21.625  0.5037E+01  0.6091E+00
    -21.610  0.5392E+01  0.6886E+00
    -21.595  0.5725E+01  0.7730E+00
    -21.581  0.6030E+01  0.8619E+00
    -21.566  0.6306E+01  0.9548E+00
    -21.551  0.6549E+01  0.1051E+01
    -21.536  0.6760E+01  0.1151E+01
    -21.522  0.6941E+01  0.1253E+01
    -21.507  0.7094E+01  0.1358E+01
    -21.492  0.7224E+01  0.1464E+01
    -21.477  0.7336E+01  0.1572E+01
    -21.463  0.7434E+01  0.1682E+01
    -21.448  0.7525E+01  0.1793E+01
    -21.433  0.7613E+01  0.1905E+01
    -21.418  0.7704E+01  0.2019E+01
    -21.404  0.7801E+01  0.2134E+01
    -21.389  0.7907E+01  0.2250E+01
    -21.374  0.8023E+01  0.2369E+01
    -21.359  0.8149E+01  0.2489E+01
    -21.345  0.8285E+01  0.2611E+01
    -21.330  0.8428E+01  0.2735E+01
    -21.315  0.8576E+01  0.2861E+01
    -21.300  0.8726E+01  0.2990E+01
    -21.286  0.8874E+01  0.3121E+01
    -21.271  0.9017E+01  0.3254E+01
    -21.256  0.9152E+01  0.3389E+01
    -21.241  0.9276E+01  0.3525E+01
    -21.227  0.9387E+01  0.3664E+01
    -21.212  0.9484E+01  0.3804E+01
    -21.197  0.9565E+01  0.3945E+01
    -21.183  0.9631E+01  0.4087E+01
    -21.168  0.9681E+01  0.4229E+01
    -21.153  0.9717E+01  0.4372E+01
    -21.138  0.9741E+01  0.4516E+01
    -21.124  0.9755E+01  0.4660E+01
    -21.109  0.9761E+01  0.4804E+01
    -21.094  0.9762E+01  0.4948E+01
    -21.079  0.9762E+01  0.5091E+01
    -21.065  0.9765E+01  0.5235E+01
    -21.050  0.9774E+01  0.5379E+01
    -21.035  0.9792E+01  0.5524E+01
    -21.020  0.9823E+01  0.5669E+01
    -21.006  0.9869E+01  0.5814E+01
    -20.991  0.9933E+01  0.5960E+01
    -20.976  0.1001E+02  0.6108E+01
    -20.961  0.1012E+02  0.6257E+01
    -20.947  0.1024E+02  0.6408E+01
    -20.932  0.1037E+02  0.6561E+01
    -20.917  0.1053E+02  0.6716E+01
    -20.902  0.1069E+02  0.6874E+01
    -20.888  0.1087E+02  0.7034E+01
    -20.873  0.1104E+02  0.7197E+01
    -20.858  0.1122E+02  0.7362E+01
    -20.844  0.1140E+02  0.7530E+01
    -20.829  0.1156E+02  0.7701E+01
    -20.814  0.1172E+02  0.7873E+01
    -20.799  0.1185E+02  0.8048E+01
    -20.785  0.1197E+02  0.8224E+01
    -20.770  0.1207E+02  0.8402E+01
    -20.755  0.1215E+02  0.8582E+01
    -20.740  0.1221E+02  0.8762E+01
    -20.726  0.1225E+02  0.8942E+01
    -20.711  0.1227E+02  0.9123E+01
    -20.696  0.1227E+02  0.9304E+01
    -20.681  0.1225E+02  0.9484E+01
    -20.667  0.1222E+02  0.9665E+01
    -20.652  0.1217E+02  0.9844E+01
    -20.637  0.1211E+02  0.1002E+02
    -20.622  0.1205E+02  0.1020E+02
    -20.608  0.1198E+02  0.1038E+02
    -20.593  0.1191E+02  0.1055E+02
    -20.578  0.1184E+02  0.1073E+02
    -20.563  0.1178E+02  0.1090E+02
    -20.549  0.1172E+02  0.1107E+02
    -20.534  0.1167E+02  0.1125E+02
    -20.519  0.1163E+02  0.1142E+02
    -20.504  0.1160E+02  0.1159E+02
    -20.490  0.1158E+02  0.1176E+02
    -20.475  0.1158E+02  0.1193E+02
    -20.460  0.1159E+02  0.1210E+02
    -20.446  0.1161E+02  0.1227E+02
    -20.431  0.1165E+02  0.1244E+02
    -20.416  0.1169E+02  0.1262E+02
    -20.401  0.1174E+02  0.1279E+02
    -20.387  0.1180E+02  0.1296E+02
    -20.372  0.1186E+02  0.1314E+02
    -20.357  0.1193E+02  0.1331E+02
    -20.342  0.1199E+02  0.1349E+02
    -20.328  0.1205E+02  0.1367E+02
    -20.313  0.1211E+02  0.1385E+02
    -20.298  0.1216E+02  0.1403E+02
    -20.283  0.1221E+02  0.1420E+02
    -20.269  0.1225E+02  0.1439E+02
    -20.254  0.1229E+02  0.1457E+02
    -20.239  0.1232E+02  0.1475E+02
    -20.224  0.1235E+02  0.1493E+02
    -20.210  0.1238E+02  0.1511E+02
    -20.195  0.1242E+02  0.1530E+02
    -20.180  0.1245E+02  0.1548E+02
    -20.165  0.1250E+02  0.1566E+02
    -20.151  0.1255E+02  0.1585E+02
    -20.136  0.1261E+02  0.1603E+02
    -20.121  0.1268E+02  0.1622E+02
    -20.107  0.1275E+02  0.1641E+02
    -20.092  0.1284E+02  0.1660E+02
    -20.077  0.1293E+02  0.1679E+02
    -20.062  0.1303E+02  0.1698E+02
    -20.048  0.1313E+02  0.1717E+02
    -20.033  0.1323E+02  0.1737E+02
    -20.018  0.1333E+02  0.1757E+02
    -20.003  0.1342E+02  0.1776E+02
    -19.989  0.1351E+02  0.1796E+02
    -19.974  0.1358E+02  0.1816E+02
    -19.959  0.1365E+02  0.1836E+02
    -19.944  0.1371E+02  0.1857E+02
    -19.930  0.1376E+02  0.1877E+02
    -19.915  0.1380E+02  0.1897E+02
    -19.900  0.1384E+02  0.1918E+02
    -19.885  0.1388E+02  0.1938E+02
    -19.871  0.1392E+02  0.1959E+02
    -19.856  0.1397E+02  0.1979E+02
    -19.841  0.1402E+02  0.2000E+02
    -19.826  0.1408E+02  0.2021E+02
    -19.812  0.1415E+02  0.2042E+02
    -19.797  0.1423E+02  0.2063E+02
    -19.782  0.1432E+02  0.2084E+02
    -19.767  0.1442E+02  0.2105E+02
    -19.753  0.1452E+02  0.2126E+02
    -19.738  0.1462E+02  0.2148E+02
    -19.723  0.1471E+02  0.2170E+02
    -19.709  0.1480E+02  0.2191E+02
    -19.694  0.1487E+02  0.2213E+02
    -19.679  0.1492E+02  0.2235E+02
    -19.664  0.1494E+02  0.2257E+02
    -19.650  0.1493E+02  0.2279E+02
    -19.635  0.1489E+02  0.2301E+02
    -19.620  0.1482E+02  0.2323E+02
    -19.605  0.1471E+02  0.2345E+02
    -19.591  0.1458E+02  0.2366E+02
    -19.576  0.1441E+02  0.2387E+02
    -19.561  0.1423E+02  0.2408E+02
    -19.546  0.1403E+02  0.2429E+02
    -19.532  0.1382E+02  0.2449E+02
    -19.517  0.1361E+02  0.2470E+02
    -19.502  0.1340E+02  0.2489E+02
    -19.487  0.1321E+02  0.2509E+02
    -19.473  0.1304E+02  0.2528E+02
    -19.458  0.1289E+02  0.2547E+02
    -19.443  0.1277E+02  0.2566E+02
    -19.428  0.1268E+02  0.2585E+02
    -19.414  0.1263E+02  0.2603E+02
    -19.399  0.1261E+02  0.2622E+02
    -19.384  0.1262E+02  0.2640E+02
    -19.370  0.1267E+02  0.2659E+02
    -19.355  0.1274E+02  0.2678E+02
    -19.340  0.1283E+02  0.2697E+02
    -19.325  0.1294E+02  0.2716E+02
    -19.311  0.1306E+02  0.2735E+02
    -19.296  0.1320E+02  0.2754E+02
    -19.281  0.1333E+02  0.2774E+02
    -19.266  0.1347E+02  0.2794E+02
    -19.252  0.1361E+02  0.2814E+02
    -19.237  0.1374E+02  0.2834E+02
    -19.222  0.1387E+02  0.2855E+02
    -19.207  0.1399E+02  0.2875E+02
    -19.193  0.1411E+02  0.2896E+02
    -19.178  0.1422E+02  0.2917E+02
    -19.163  0.1432E+02  0.2938E+02
    -19.148  0.1442E+02  0.2959E+02
    -19.134  0.1451E+02  0.2981E+02
    -19.119  0.1460E+02  0.3002E+02
    -19.104  0.1467E+02  0.3024E+02
    -19.089  0.1475E+02  0.3046E+02
    -19.075  0.1481E+02  0.3068E+02
    -19.060  0.1487E+02  0.3090E+02
    -19.045  0.1492E+02  0.3111E+02
    -19.030  0.1496E+02  0.3134E+02
    -19.016  0.1498E+02  0.3156E+02
    -19.001  0.1499E+02  0.3178E+02
    -18.986  0.1498E+02  0.3200E+02
    -18.972  0.1496E+02  0.3222E+02
    -18.957  0.1492E+02  0.3244E+02
    -18.942  0.1485E+02  0.3266E+02
    -18.927  0.1477E+02  0.3288E+02
    -18.913  0.1467E+02  0.3309E+02
    -18.898  0.1455E+02  0.3331E+02
    -18.883  0.1440E+02  0.3352E+02
    -18.868  0.1425E+02  0.3373E+02
    -18.854  0.1408E+02  0.3394E+02
    -18.839  0.1390E+02  0.3414E+02
    -18.824  0.1371E+02  0.3434E+02
    -18.809  0.1352E+02  0.3454E+02
    -18.795  0.1333E+02  0.3474E+02
    -18.780  0.1314E+02  0.3493E+02
    -18.765  0.1296E+02  0.3512E+02
    -18.750  0.1280E+02  0.3531E+02
    -18.736  0.1266E+02  0.3550E+02
    -18.721  0.1253E+02  0.3568E+02
    -18.706  0.1242E+02  0.3587E+02
    -18.691  0.1234E+02  0.3605E+02
    -18.677  0.1227E+02  0.3623E+02
    -18.662  0.1223E+02  0.3641E+02
    -18.647  0.1222E+02  0.3659E+02
    -18.633  0.1222E+02  0.3677E+02
    -18.618  0.1224E+02  0.3695E+02
    -18.603  0.1229E+02  0.3713E+02
    -18.588  0.1235E+02  0.3731E+02
    -18.574  0.1243E+02  0.3750E+02
    -18.559  0.1252E+02  0.3768E+02
    -18.544  0.1264E+02  0.3787E+02
    -18.529  0.1276E+02  0.3805E+02
    -18.515  0.1291E+02  0.3824E+02
    -18.500  0.1306E+02  0.3844E+02
    -18.485  0.1323E+02  0.3863E+02
    -18.470  0.1340E+02  0.3883E+02
    -18.456  0.1359E+02  0.3903E+02
    -18.441  0.1377E+02  0.3923E+02
    -18.426  0.1396E+02  0.3944E+02
    -18.411  0.1414E+02  0.3965E+02
    -18.397  0.1430E+02  0.3986E+02
    -18.382  0.1446E+02  0.4007E+02
    -18.367  0.1459E+02  0.4029E+02
    -18.352  0.1471E+02  0.4050E+02
    -18.338  0.1480E+02  0.4072E+02
    -18.323  0.1486E+02  0.4094E+02
    -18.308  0.1489E+02  0.4116E+02
    -18.293  0.1490E+02  0.4138E+02
    -18.279  0.1489E+02  0.4160E+02
    -18.264  0.1486E+02  0.4182E+02
    -18.249  0.1482E+02  0.4204E+02
    -18.235  0.1476E+02  0.4225E+02
    -18.220  0.1470E+02  0.4247E+02
    -18.205  0.1465E+02  0.4269E+02
    -18.190  0.1460E+02  0.4290E+02
    -18.176  0.1456E+02  0.4312E+02
    -18.161  0.1454E+02  0.4333E+02
    -18.146  0.1453E+02  0.4355E+02
    -18.131  0.1455E+02  0.4376E+02
    -18.117  0.1458E+02  0.4397E+02
    -18.102  0.1462E+02  0.4419E+02
    -18.087  0.1468E+02  0.4441E+02
    -18.072  0.1475E+02  0.4462E+02
    -18.058  0.1483E+02  0.4484E+02
    -18.043  0.1491E+02  0.4506E+02
    -18.028  0.1500E+02  0.4528E+02
    -18.013  0.1508E+02  0.4551E+02
    -17.999  0.1515E+02  0.4573E+02
    -17.984  0.1521E+02  0.4595E+02
    -17.969  0.1527E+02  0.4618E+02
    -17.954  0.1532E+02  0.4640E+02
    -17.940  0.1535E+02  0.4663E+02
    -17.925  0.1537E+02  0.4686E+02
    -17.910  0.1538E+02  0.4708E+02
    -17.896  0.1538E+02  0.4731E+02
    -17.881  0.1536E+02  0.4754E+02
    -17.866  0.1533E+02  0.4776E+02
    -17.851  0.1529E+02  0.4799E+02
    -17.837  0.1523E+02  0.4821E+02
    -17.822  0.1515E+02  0.4844E+02
    -17.807  0.1507E+02  0.4866E+02
    -17.792  0.1496E+02  0.4888E+02
    -17.778  0.1485E+02  0.4910E+02
    -17.763  0.1471E+02  0.4931E+02
    -17.748  0.1457E+02  0.4953E+02
    -17.733  0.1441E+02  0.4974E+02
    -17.719  0.1425E+02  0.4995E+02
    -17.704  0.1408E+02  0.5016E+02
    -17.689  0.1392E+02  0.5036E+02
    -17.674  0.1376E+02  0.5057E+02
    -17.660  0.1361E+02  0.5077E+02
    -17.645  0.1348E+02  0.5097E+02
    -17.630  0.1337E+02  0.5116E+02
    -17.615  0.1329E+02  0.5136E+02
    -17.601  0.1323E+02  0.5155E+02
    -17.586  0.1321E+02  0.5175E+02
    -17.571  0.1322E+02  0.5194E+02
    -17.556  0.1327E+02  0.5214E+02
    -17.542  0.1334E+02  0.5234E+02
    -17.527  0.1345E+02  0.5253E+02
    -17.512  0.1358E+02  0.5273E+02
    -17.498  0.1373E+02  0.5294E+02
    -17.483  0.1389E+02  0.5314E+02
    -17.468  0.1407E+02  0.5335E+02
    -17.453  0.1424E+02  0.5356E+02
    -17.439  0.1440E+02  0.5377E+02
    -17.424  0.1456E+02  0.5399E+02
    -17.409  0.1469E+02  0.5420E+02
    -17.394  0.1480E+02  0.5442E+02
    -17.380  0.1488E+02  0.5464E+02
    -17.365  0.1493E+02  0.5486E+02
    -17.350  0.1496E+02  0.5508E+02
    -17.335  0.1495E+02  0.5530E+02
    -17.321  0.1491E+02  0.5552E+02
    -17.306  0.1484E+02  0.5574E+02
    -17.291  0.1475E+02  0.5596E+02
    -17.276  0.1464E+02  0.5617E+02
    -17.262  0.1451E+02  0.5639E+02
    -17.247  0.1437E+02  0.5660E+02
    -17.232  0.1423E+02  0.5681E+02
    -17.217  0.1408E+02  0.5702E+02
    -17.203  0.1393E+02  0.5722E+02
    -17.188  0.1379E+02  0.5742E+02
    -17.173  0.1365E+02  0.5763E+02
    -17.159  0.1353E+02  0.5782E+02
    -17.144  0.1343E+02  0.5802E+02
    -17.129  0.1334E+02  0.5822E+02
    -17.114  0.1327E+02  0.5841E+02
    -17.100  0.1322E+02  0.5861E+02
    -17.085  0.1319E+02  0.5880E+02
    -17.070  0.1318E+02  0.5900E+02
    -17.055  0.1319E+02  0.5919E+02
    -17.041  0.1321E+02  0.5939E+02
    -17.026  0.1326E+02  0.5958E+02
    -17.011  0.1332E+02  0.5978E+02
    -16.996  0.1340E+02  0.5998E+02
    -16.982  0.1349E+02  0.6018E+02
    -16.967  0.1359E+02  0.6038E+02
    -16.952  0.1370E+02  0.6058E+02
    -16.937  0.1382E+02  0.6078E+02
    -16.923  0.1394E+02  0.6099E+02
    -16.908  0.1406E+02  0.6119E+02
    -16.893  0.1418E+02  0.6140E+02
    -16.878  0.1430E+02  0.6161E+02
    -16.864  0.1440E+02  0.6183E+02
    -16.849  0.1451E+02  0.6204E+02
    -16.834  0.1460E+02  0.6226E+02
    -16.819  0.1468E+02  0.6247E+02
    -16.805  0.1475E+02  0.6269E+02
    -16.790  0.1481E+02  0.6291E+02
    -16.775  0.1485E+02  0.6313E+02
    -16.761  0.1489E+02  0.6335E+02
    -16.746  0.1492E+02  0.6357E+02
    -16.731  0.1494E+02  0.6379E+02
    -16.716  0.1496E+02  0.6401E+02
    -16.702  0.1498E+02  0.6423E+02
    -16.687  0.1501E+02  0.6445E+02
    -16.672  0.1504E+02  0.6467E+02
    -16.657  0.1508E+02  0.6489E+02
    -16.643  0.1514E+02  0.6512E+02
    -16.628  0.1521E+02  0.6534E+02
    -16.613  0.1530E+02  0.6556E+02
    -16.598  0.1540E+02  0.6579E+02
    -16.584  0.1551E+02  0.6602E+02
    -16.569  0.1564E+02  0.6625E+02
    -16.554  0.1578E+02  0.6648E+02
    -16.539  0.1593E+02  0.6672E+02
    -16.525  0.1607E+02  0.6696E+02
    -16.510  0.1621E+02  0.6719E+02
    -16.495  0.1633E+02  0.6743E+02
    -16.480  0.1645E+02  0.6768E+02
    -16.466  0.1654E+02  0.6792E+02
    -16.451  0.1661E+02  0.6817E+02
    -16.436  0.1665E+02  0.6841E+02
    -16.422  0.1667E+02  0.6866E+02
    -16.407  0.1665E+02  0.6890E+02
    -16.392  0.1662E+02  0.6915E+02
    -16.377  0.1655E+02  0.6939E+02
    -16.363  0.1646E+02  0.6963E+02
    -16.348  0.1636E+02  0.6988E+02
    -16.333  0.1625E+02  0.7011E+02
    -16.318  0.1612E+02  0.7035E+02
    -16.304  0.1599E+02  0.7059E+02
    -16.289  0.1587E+02  0.7082E+02
    -16.274  0.1575E+02  0.7105E+02
    -16.259  0.1563E+02  0.7128E+02
    -16.245  0.1553E+02  0.7151E+02
    -16.230  0.1544E+02  0.7174E+02
    -16.215  0.1537E+02  0.7197E+02
    -16.200  0.1531E+02  0.7219E+02
    -16.186  0.1526E+02  0.7242E+02
    -16.171  0.1522E+02  0.7264E+02
    -16.156  0.1519E+02  0.7287E+02
    -16.141  0.1516E+02  0.7309E+02
    -16.127  0.1514E+02  0.7331E+02
    -16.112  0.1512E+02  0.7354E+02
    -16.097  0.1510E+02  0.7376E+02
    -16.082  0.1509E+02  0.7398E+02
    -16.068  0.1506E+02  0.7420E+02
    -16.053  0.1504E+02  0.7442E+02
    -16.038  0.1502E+02  0.7465E+02
    -16.024  0.1500E+02  0.7487E+02
    -16.009  0.1499E+02  0.7509E+02
    -15.994  0.1498E+02  0.7531E+02
    -15.979  0.1498E+02  0.7553E+02
    -15.965  0.1499E+02  0.7575E+02
    -15.950  0.1501E+02  0.7597E+02
    -15.935  0.1505E+02  0.7619E+02
    -15.920  0.1510E+02  0.7642E+02
    -15.906  0.1516E+02  0.7664E+02
    -15.891  0.1524E+02  0.7686E+02
    -15.876  0.1533E+02  0.7709E+02
    -15.861  0.1542E+02  0.7732E+02
    -15.847  0.1553E+02  0.7755E+02
    -15.832  0.1563E+02  0.7778E+02
    -15.817  0.1574E+02  0.7801E+02
    -15.802  0.1584E+02  0.7824E+02
    -15.788  0.1593E+02  0.7848E+02
    -15.773  0.1601E+02  0.7871E+02
    -15.758  0.1607E+02  0.7895E+02
    -15.743  0.1612E+02  0.7919E+02
    -15.729  0.1614E+02  0.7943E+02
    -15.714  0.1614E+02  0.7966E+02
    -15.699  0.1612E+02  0.7990E+02
    -15.685  0.1607E+02  0.8014E+02
    -15.670  0.1600E+02  0.8037E+02
    -15.655  0.1591E+02  0.8061E+02
    -15.640  0.1579E+02  0.8084E+02
    -15.626  0.1564E+02  0.8107E+02
    -15.611  0.1548E+02  0.8130E+02
    -15.596  0.1531E+02  0.8153E+02
    -15.581  0.1512E+02  0.8175E+02
    -15.567  0.1492E+02  0.8197E+02
    -15.552  0.1471E+02  0.8219E+02
    -15.537  0.1450E+02  0.8240E+02
    -15.522  0.1429E+02  0.8261E+02
    -15.508  0.1409E+02  0.8282E+02
    -15.493  0.1388E+02  0.8302E+02
    -15.478  0.1369E+02  0.8322E+02
    -15.463  0.1350E+02  0.8342E+02
    -15.449  0.1333E+02  0.8362E+02
    -15.434  0.1316E+02  0.8381E+02
    -15.419  0.1301E+02  0.8401E+02
    -15.404  0.1287E+02  0.8419E+02
    -15.390  0.1273E+02  0.8438E+02
    -15.375  0.1262E+02  0.8457E+02
    -15.360  0.1251E+02  0.8475E+02
    -15.345  0.1241E+02  0.8494E+02
    -15.331  0.1232E+02  0.8512E+02
    -15.316  0.1225E+02  0.8530E+02
    -15.301  0.1218E+02  0.8548E+02
    -15.287  0.1213E+02  0.8566E+02
    -15.272  0.1209E+02  0.8583E+02
    -15.257  0.1206E+02  0.8601E+02
    -15.242  0.1204E+02  0.8619E+02
    -15.228  0.1204E+02  0.8637E+02
    -15.213  0.1206E+02  0.8654E+02
    -15.198  0.1209E+02  0.8672E+02
    -15.183  0.1214E+02  0.8690E+02
    -15.169  0.1221E+02  0.8708E+02
    -15.154  0.1229E+02  0.8726E+02
    -15.139  0.1240E+02  0.8745E+02
    -15.124  0.1252E+02  0.8763E+02
    -15.110  0.1266E+02  0.8782E+02
    -15.095  0.1282E+02  0.8801E+02
    -15.080  0.1299E+02  0.8820E+02
    -15.065  0.1317E+02  0.8839E+02
    -15.051  0.1336E+02  0.8859E+02
    -15.036  0.1356E+02  0.8879E+02
    -15.021  0.1375E+02  0.8899E+02
    -15.006  0.1394E+02  0.8920E+02
    -14.992  0.1412E+02  0.8941E+02
    -14.977  0.1429E+02  0.8962E+02
    -14.962  0.1444E+02  0.8983E+02
    -14.948  0.1456E+02  0.9004E+02
    -14.933  0.1466E+02  0.9026E+02
    -14.918  0.1474E+02  0.9048E+02
    -14.903  0.1478E+02  0.9069E+02
    -14.889  0.1480E+02  0.9091E+02
    -14.874  0.1478E+02  0.9113E+02
    -14.859  0.1474E+02  0.9135E+02
    -14.844  0.1468E+02  0.9156E+02
    -14.830  0.1460E+02  0.9178E+02
    -14.815  0.1449E+02  0.9199E+02
    -14.800  0.1438E+02  0.9220E+02
    -14.785  0.1426E+02  0.9242E+02
    -14.771  0.1413E+02  0.9262E+02
    -14.756  0.1401E+02  0.9283E+02
    -14.741  0.1390E+02  0.9303E+02
    -14.726  0.1379E+02  0.9324E+02
    -14.712  0.1371E+02  0.9344E+02
    -14.697  0.1364E+02  0.9364E+02
    -14.682  0.1359E+02  0.9384E+02
    -14.667  0.1357E+02  0.9404E+02
    -14.653  0.1356E+02  0.9424E+02
    -14.638  0.1359E+02  0.9444E+02
    -14.623  0.1363E+02  0.9464E+02
    -14.608  0.1369E+02  0.9484E+02
    -14.594  0.1377E+02  0.9505E+02
    -14.579  0.1387E+02  0.9525E+02
    -14.564  0.1397E+02  0.9546E+02
    -14.550  0.1408E+02  0.9567E+02
    -14.535  0.1419E+02  0.9587E+02
    -14.520  0.1429E+02  0.9608E+02
    -14.505  0.1439E+02  0.9630E+02
    -14.491  0.1448E+02  0.9651E+02
    -14.476  0.1456E+02  0.9673E+02
    -14.461  0.1463E+02  0.9694E+02
    -14.446  0.1468E+02  0.9716E+02
    -14.432  0.1473E+02  0.9737E+02
    -14.417  0.1475E+02  0.9759E+02
    -14.402  0.1478E+02  0.9781E+02
    -14.387  0.1479E+02  0.9803E+02
    -14.373  0.1480E+02  0.9825E+02
    -14.358  0.1480E+02  0.9846E+02
    -14.343  0.1481E+02  0.9868E+02
    -14.328  0.1482E+02  0.9890E+02
    -14.314  0.1484E+02  0.9912E+02
    -14.299  0.1486E+02  0.9934E+02
    -14.284  0.1489E+02  0.9956E+02
    -14.269  0.1492E+02  0.9978E+02
    -14.255  0.1496E+02  0.1000E+03
    -14.240  0.1500E+02  0.1002E+03
    -14.225  0.1504E+02  0.1004E+03
    -14.211  0.1508E+02  0.1007E+03
    -14.196  0.1513E+02  0.1009E+03
    -14.181  0.1516E+02  0.1011E+03
    -14.166  0.1520E+02  0.1013E+03
    -14.152  0.1523E+02  0.1016E+03
    -14.137  0.1525E+02  0.1018E+03
    -14.122  0.1526E+02  0.1020E+03
    -14.107  0.1528E+02  0.1022E+03
    -14.093  0.1529E+02  0.1025E+03
    -14.078  0.1529E+02  0.1027E+03
    -14.063  0.1530E+02  0.1029E+03
    -14.048  0.1531E+02  0.1031E+03
    -14.034  0.1532E+02  0.1034E+03
    -14.019  0.1534E+02  0.1036E+03
    -14.004  0.1536E+02  0.1038E+03
    -13.989  0.1539E+02  0.1040E+03
    -13.975  0.1542E+02  0.1043E+03
    -13.960  0.1547E+02  0.1045E+03
    -13.945  0.1552E+02  0.1047E+03
    -13.930  0.1557E+02  0.1050E+03
    -13.916  0.1563E+02  0.1052E+03
    -13.901  0.1568E+02  0.1054E+03
    -13.886  0.1574E+02  0.1056E+03
    -13.871  0.1580E+02  0.1059E+03
    -13.857  0.1585E+02  0.1061E+03
    -13.842  0.1589E+02  0.1063E+03
    -13.827  0.1594E+02  0.1066E+03
    -13.813  0.1597E+02  0.1068E+03
    -13.798  0.1600E+02  0.1071E+03
    -13.783  0.1602E+02  0.1073E+03
    -13.768  0.1603E+02  0.1075E+03
    -13.754  0.1604E+02  0.1078E+03
    -13.739  0.1604E+02  0.1080E+03
    -13.724  0.1603E+02  0.1082E+03
    -13.709  0.1603E+02  0.1085E+03
    -13.695  0.1601E+02  0.1087E+03
    -13.680  0.1600E+02  0.1089E+03
    -13.665  0.1598E+02  0.1092E+03
    -13.650  0.1595E+02  0.1094E+03
    -13.636  0.1592E+02  0.1096E+03
    -13.621  0.1588E+02  0.1099E+03
    -13.606  0.1584E+02  0.1101E+03
    -13.591  0.1578E+02  0.1103E+03
    -13.577  0.1573E+02  0.1106E+03
    -13.562  0.1566E+02  0.1108E+03
    -13.547  0.1559E+02  0.1110E+03
    -13.532  0.1552E+02  0.1113E+03
    -13.518  0.1544E+02  0.1115E+03
    -13.503  0.1536E+02  0.1117E+03
    -13.488  0.1528E+02  0.1119E+03
    -13.474  0.1521E+02  0.1122E+03
    -13.459  0.1514E+02  0.1124E+03
    -13.444  0.1507E+02  0.1126E+03
    -13.429  0.1502E+02  0.1128E+03
    -13.415  0.1497E+02  0.1131E+03
    -13.400  0.1493E+02  0.1133E+03
    -13.385  0.1491E+02  0.1135E+03
    -13.370  0.1489E+02  0.1137E+03
    -13.356  0.1488E+02  0.1139E+03
    -13.341  0.1488E+02  0.1142E+03
    -13.326  0.1489E+02  0.1144E+03
    -13.311  0.1490E+02  0.1146E+03
    -13.297  0.1491E+02  0.1148E+03
    -13.282  0.1493E+02  0.1150E+03
    -13.267  0.1494E+02  0.1153E+03
    -13.252  0.1495E+02  0.1155E+03
    -13.238  0.1496E+02  0.1157E+03
    -13.223  0.1496E+02  0.1159E+03
    -13.208  0.1496E+02  0.1161E+03
    -13.193  0.1495E+02  0.1164E+03
    -13.179  0.1495E+02  0.1166E+03
    -13.164  0.1494E+02  0.1168E+03
    -13.149  0.1493E+02  0.1170E+03
    -13.134  0.1493E+02  0.1172E+03
    -13.120  0.1493E+02  0.1175E+03
    -13.105  0.1493E+02  0.1177E+03
    -13.090  0.1495E+02  0.1179E+03
    -13.076  0.1497E+02  0.1181E+03
    -13.061  0.1500E+02  0.1183E+03
    -13.046  0.1505E+02  0.1186E+03
    -13.031  0.1510E+02  0.1188E+03
    -13.017  0.1517E+02  0.1190E+03
    -13.002  0.1524E+02  0.1192E+03
    -12.987  0.1532E+02  0.1195E+03
    -12.972  0.1541E+02  0.1197E+03
    -12.958  0.1550E+02  0.1199E+03
    -12.943  0.1559E+02  0.1201E+03
    -12.928  0.1567E+02  0.1204E+03
    -12.913  0.1575E+02  0.1206E+03
    -12.899  0.1583E+02  0.1208E+03
    -12.884  0.1589E+02  0.1211E+03
    -12.869  0.1595E+02  0.1213E+03
    -12.854  0.1600E+02  0.1215E+03
    -12.840  0.1603E+02  0.1218E+03
    -12.825  0.1606E+02  0.1220E+03
    -12.810  0.1608E+02  0.1223E+03
    -12.795  0.1610E+02  0.1225E+03
    -12.781  0.1611E+02  0.1227E+03
    -12.766  0.1612E+02  0.1230E+03
    -12.751  0.1614E+02  0.1232E+03
    -12.737  0.1617E+02  0.1234E+03
    -12.722  0.1620E+02  0.1237E+03
    -12.707  0.1625E+02  0.1239E+03
    -12.692  0.1631E+02  0.1242E+03
    -12.678  0.1637E+02  0.1244E+03
    -12.663  0.1645E+02  0.1247E+03
    -12.648  0.1654E+02  0.1249E+03
    -12.633  0.1662E+02  0.1251E+03
    -12.619  0.1671E+02  0.1254E+03
    -12.604  0.1680E+02  0.1256E+03
    -12.589  0.1687E+02  0.1259E+03
    -12.574  0.1693E+02  0.1261E+03
    -12.560  0.1697E+02  0.1264E+03
    -12.545  0.1698E+02  0.1266E+03
    -12.530  0.1696E+02  0.1269E+03
    -12.515  0.1690E+02  0.1271E+03
    -12.501  0.1682E+02  0.1274E+03
    -12.486  0.1669E+02  0.1276E+03
    -12.471  0.1653E+02  0.1279E+03
    -12.456  0.1634E+02  0.1281E+03
    -12.442  0.1612E+02  0.1283E+03
    -12.427  0.1588E+02  0.1286E+03
    -12.412  0.1562E+02  0.1288E+03
    -12.397  0.1535E+02  0.1290E+03
    -12.383  0.1508E+02  0.1293E+03
    -12.368  0.1482E+02  0.1295E+03
    -12.353  0.1457E+02  0.1297E+03
    -12.339  0.1434E+02  0.1299E+03
    -12.324  0.1415E+02  0.1301E+03
    -12.309  0.1399E+02  0.1303E+03
    -12.294  0.1387E+02  0.1305E+03
    -12.280  0.1379E+02  0.1307E+03
    -12.265  0.1375E+02  0.1309E+03
    -12.250  0.1375E+02  0.1311E+03
    -12.235  0.1380E+02  0.1313E+03
    -12.221  0.1387E+02  0.1315E+03
    -12.206  0.1398E+02  0.1317E+03
    -12.191  0.1412E+02  0.1320E+03
    -12.176  0.1427E+02  0.1322E+03
    -12.162  0.1444E+02  0.1324E+03
    -12.147  0.1462E+02  0.1326E+03
    -12.132  0.1480E+02  0.1328E+03
    -12.117  0.1498E+02  0.1330E+03
    -12.103  0.1515E+02  0.1333E+03
    -12.088  0.1531E+02  0.1335E+03
    -12.073  0.1546E+02  0.1337E+03
    -12.058  0.1558E+02  0.1339E+03
    -12.044  0.1569E+02  0.1342E+03
    -12.029  0.1577E+02  0.1344E+03
    -12.014  0.1584E+02  0.1346E+03
    -12.000  0.1588E+02  0.1349E+03
    -11.985  0.1590E+02  0.1351E+03
    -11.970  0.1590E+02  0.1353E+03
    -11.955  0.1589E+02  0.1356E+03
    -11.941  0.1587E+02  0.1358E+03
    -11.926  0.1583E+02  0.1360E+03
    -11.911  0.1579E+02  0.1363E+03
    -11.896  0.1575E+02  0.1365E+03
    -11.882  0.1570E+02  0.1367E+03
    -11.867  0.1567E+02  0.1370E+03
    -11.852  0.1564E+02  0.1372E+03
    -11.837  0.1562E+02  0.1374E+03
    -11.823  0.1562E+02  0.1377E+03
    -11.808  0.1563E+02  0.1379E+03
    -11.793  0.1566E+02  0.1381E+03
    -11.778  0.1571E+02  0.1384E+03
    -11.764  0.1578E+02  0.1386E+03
    -11.749  0.1586E+02  0.1388E+03
    -11.734  0.1595E+02  0.1391E+03
    -11.719  0.1605E+02  0.1393E+03
    -11.705  0.1617E+02  0.1395E+03
    -11.690  0.1628E+02  0.1398E+03
    -11.675  0.1640E+02  0.1400E+03
    -11.660  0.1651E+02  0.1403E+03
    -11.646  0.1662E+02  0.1405E+03
    -11.631  0.1671E+02  0.1407E+03
    -11.616  0.1679E+02  0.1410E+03
    -11.602  0.1685E+02  0.1412E+03
    -11.587  0.1689E+02  0.1415E+03
    -11.572  0.1691E+02  0.1417E+03
    -11.557  0.1691E+02  0.1420E+03
    -11.543  0.1690E+02  0.1422E+03
    -11.528  0.1686E+02  0.1425E+03
    -11.513  0.1682E+02  0.1427E+03
    -11.498  0.1676E+02  0.1430E+03
    -11.484  0.1670E+02  0.1432E+03
    -11.469  0.1663E+02  0.1435E+03
    -11.454  0.1657E+02  0.1437E+03
    -11.439  0.1650E+02  0.1440E+03
    -11.425  0.1644E+02  0.1442E+03
    -11.410  0.1639E+02  0.1444E+03
    -11.395  0.1634E+02  0.1447E+03