 189 189   0   0
  0.4744916E+02  0.2413466E-08  0.1857887E-08  0.2000000E-08  0.5000000E-15
  1.000000000000000E-004
  CAR 
 unknown system                          
      3.57968518    -24.25395384 2000     -3.52137911      1.00000000
    -24.254  0.0000E+00  0.0000E+00
    -24.240  0.0000E+00  0.0000E+00
    -24.226  0.0000E+00  0.0000E+00
    -24.212  0.0000E+00  0.0000E+00
    -24.198  0.0000E+00  0.0000E+00
    -24.184  0.0000E+00  0.0000E+00
    -24.170  0.0000E+00  0.0000E+00
    -24.156  0.0000E+00  0.0000E+00
    -24.143  0.0000E+00  0.0000E+00
    -24.129  0.0000E+00  0.0000E+00
    -24.115  0.0000E+00  0.0000E+00
    -24.101  0.0000E+00  0.0000E+00
    -24.087  0.0000E+00  0.0000E+00
    -24.073  0.0000E+00  0.0000E+00
    -24.059  0.0000E+00  0.0000E+00
    -24.045  0.0000E+00  0.0000E+00
    -24.031  0.0000E+00  0.0000E+00
    -24.017  0.0000E+00  0.0000E+00
    -24.003  0.0000E+00  0.0000E+00
    -23.989  0.0000E+00  0.0000E+00
    -23.975  0.0000E+00  0.0000E+00
    -23.962  0.0000E+00  0.0000E+00
    -23.948  0.0000E+00  0.0000E+00
    -23.934  0.0000E+00  0.0000E+00
    -23.920  0.0000E+00  0.0000E+00
    -23.906  0.0000E+00  0.0000E+00
    -23.892  0.0000E+00  0.0000E+00
    -23.878  0.0000E+00  0.0000E+00
    -23.864  0.0000E+00  0.0000E+00
    -23.850  0.0000E+00  0.0000E+00
    -23.836  0.0000E+00  0.0000E+00
    -23.822  0.0000E+00  0.0000E+00
    -23.808  0.0000E+00  0.0000E+00
    -23.794  0.0000E+00  0.0000E+00
    -23.781  0.0000E+00  0.0000E+00
    -23.767  0.0000E+00  0.0000E+00
    -23.753  0.0000E+00  0.0000E+00
    -23.739  0.0000E+00  0.0000E+00
    -23.725  0.0000E+00  0.0000E+00
    -23.711  0.0000E+00  0.0000E+00
    -23.697  0.0000E+00  0.0000E+00
    -23.683  0.0000E+00  0.0000E+00
    -23.669  0.0000E+00  0.0000E+00
    -23.655  0.0000E+00  0.0000E+00
    -23.641  0.0000E+00  0.0000E+00
    -23.627  0.0000E+00  0.0000E+00
    -23.613  0.0000E+00  0.0000E+00
    -23.600  0.0000E+00  0.0000E+00
    -23.586  0.0000E+00  0.0000E+00
    -23.572  0.0000E+00  0.0000E+00
    -23.558  0.0000E+00  0.0000E+00
    -23.544  0.0000E+00  0.0000E+00
    -23.530  0.0000E+00  0.0000E+00
    -23.516  0.0000E+00  0.0000E+00
    -23.502  0.0000E+00  0.0000E+00
    -23.488  0.0000E+00  0.0000E+00
    -23.474  0.0000E+00  0.0000E+00
    -23.460  0.0000E+00  0.0000E+00
    -23.446  0.0000E+00  0.0000E+00
    -23.432  0.2658E-14  0.3701E-16
    -23.419  0.6202E-14  0.1234E-15
    -23.405  0.1063E-13  0.2714E-15
    -23.391  0.2126E-13  0.5674E-15
    -23.377  0.5493E-13  0.1332E-14
    -23.363  0.1169E-12  0.2961E-14
    -23.349  0.2578E-12  0.6550E-14
    -23.335  0.5555E-12  0.1428E-13
    -23.321  0.1177E-11  0.3067E-13
    -23.307  0.2490E-11  0.6534E-13
    -23.293  0.5217E-11  0.1380E-12
    -23.279  0.1080E-10  0.2883E-12
    -23.265  0.2218E-10  0.5971E-12
    -23.251  0.4509E-10  0.1225E-11
    -23.238  0.9078E-10  0.2489E-11
    -23.224  0.1811E-09  0.5010E-11
    -23.210  0.3576E-09  0.9990E-11
    -23.196  0.6997E-09  0.1973E-10
    -23.182  0.1356E-08  0.3861E-10
    -23.168  0.2602E-08  0.7484E-10
    -23.154  0.4946E-08  0.1437E-09
    -23.140  0.9313E-08  0.2734E-09
    -23.126  0.1737E-07  0.5152E-09
    -23.112  0.3208E-07  0.9618E-09
    -23.098  0.5868E-07  0.1779E-08
    -23.084  0.1063E-06  0.3259E-08
    -23.070  0.1908E-06  0.5917E-08
    -23.057  0.3393E-06  0.1064E-07
    -23.043  0.5974E-06  0.1896E-07
    -23.029  0.1042E-05  0.3346E-07
    -23.015  0.1800E-05  0.5852E-07
    -23.001  0.3080E-05  0.1014E-06
    -22.987  0.5219E-05  0.1741E-06
    -22.973  0.8762E-05  0.2961E-06
    -22.959  0.1457E-04  0.4990E-06
    -22.945  0.2400E-04  0.8331E-06
    -22.931  0.3916E-04  0.1378E-05
    -22.917  0.6329E-04  0.2260E-05
    -22.903  0.1013E-03  0.3670E-05
    -22.889  0.1607E-03  0.5908E-05
    -22.875  0.2524E-03  0.9422E-05
    -22.862  0.3928E-03  0.1489E-04
    -22.848  0.6055E-03  0.2332E-04
    -22.834  0.9245E-03  0.3619E-04
    -22.820  0.1399E-02  0.5567E-04
    -22.806  0.2096E-02  0.8485E-04
    -22.792  0.3111E-02  0.1282E-03
    -22.778  0.4576E-02  0.1919E-03
    -22.764  0.6667E-02  0.2847E-03
    -22.750  0.9623E-02  0.4187E-03
    -22.736  0.1376E-01  0.6103E-03
    -22.722  0.1950E-01  0.8818E-03
    -22.708  0.2737E-01  0.1263E-02
    -22.694  0.3806E-01  0.1793E-02
    -22.681  0.5244E-01  0.2523E-02
    -22.667  0.7160E-01  0.3520E-02
    -22.653  0.9685E-01  0.4868E-02
    -22.639  0.1298E+00  0.6676E-02
    -22.625  0.1724E+00  0.9077E-02
    -22.611  0.2269E+00  0.1224E-01
    -22.597  0.2960E+00  0.1636E-01
    -22.583  0.3826E+00  0.2169E-01
    -22.569  0.4900E+00  0.2851E-01
    -22.555  0.6221E+00  0.3717E-01
    -22.541  0.7827E+00  0.4807E-01
    -22.527  0.9761E+00  0.6166E-01
    -22.513  0.1207E+01  0.7846E-01
    -22.500  0.1478E+01  0.9905E-01
    -22.486  0.1796E+01  0.1241E+00
    -22.472  0.2163E+01  0.1542E+00
    -22.458  0.2583E+01  0.1901E+00
    -22.444  0.3058E+01  0.2327E+00
    -22.430  0.3590E+01  0.2827E+00
    -22.416  0.4180E+01  0.3409E+00
    -22.402  0.4827E+01  0.4081E+00
    -22.388  0.5530E+01  0.4851E+00
    -22.374  0.6285E+01  0.5726E+00
    -22.360  0.7088E+01  0.6713E+00
    -22.346  0.7932E+01  0.7818E+00
    -22.332  0.8811E+01  0.9044E+00
    -22.319  0.9716E+01  0.1040E+01
    -22.305  0.1064E+02  0.1188E+01
    -22.291  0.1157E+02  0.1349E+01
    -22.277  0.1249E+02  0.1523E+01
    -22.263  0.1341E+02  0.1709E+01
    -22.249  0.1430E+02  0.1909E+01
    -22.235  0.1516E+02  0.2120E+01
    -22.221  0.1598E+02  0.2342E+01
    -22.207  0.1675E+02  0.2575E+01
    -22.193  0.1748E+02  0.2819E+01
    -22.179  0.1814E+02  0.3071E+01
    -22.165  0.1875E+02  0.3332E+01
    -22.151  0.1930E+02  0.3601E+01
    -22.138  0.1978E+02  0.3876E+01
    -22.124  0.2020E+02  0.4158E+01
    -22.110  0.2057E+02  0.4444E+01
    -22.096  0.2087E+02  0.4735E+01
    -22.082  0.2111E+02  0.5029E+01
    -22.068  0.2130E+02  0.5325E+01
    -22.054  0.2143E+02  0.5624E+01
    -22.040  0.2152E+02  0.5923E+01
    -22.026  0.2155E+02  0.6223E+01
    -22.012  0.2154E+02  0.6523E+01
    -21.998  0.2148E+02  0.6822E+01
    -21.984  0.2139E+02  0.7120E+01
    -21.970  0.2125E+02  0.7416E+01
    -21.957  0.2109E+02  0.7710E+01
    -21.943  0.2089E+02  0.8001E+01
    -21.929  0.2068E+02  0.8289E+01
    -21.915  0.2044E+02  0.8573E+01
    -21.901  0.2019E+02  0.8854E+01
    -21.887  0.1994E+02  0.9132E+01
    -21.873  0.1969E+02  0.9406E+01
    -21.859  0.1945E+02  0.9677E+01
    -21.845  0.1922E+02  0.9944E+01
    -21.831  0.1901E+02  0.1021E+02
    -21.817  0.1882E+02  0.1047E+02
    -21.803  0.1867E+02  0.1073E+02
    -21.789  0.1855E+02  0.1099E+02
    -21.776  0.1846E+02  0.1125E+02
    -21.762  0.1842E+02  0.1150E+02
    -21.748  0.1841E+02  0.1176E+02
    -21.734  0.1844E+02  0.1202E+02
    -21.720  0.1851E+02  0.1227E+02
    -21.706  0.1861E+02  0.1253E+02
    -21.692  0.1875E+02  0.1279E+02
    -21.678  0.1891E+02  0.1306E+02
    -21.664  0.1910E+02  0.1332E+02
    -21.650  0.1931E+02  0.1359E+02
    -21.636  0.1954E+02  0.1386E+02
    -21.622  0.1978E+02  0.1414E+02
    -21.608  0.2003E+02  0.1442E+02
    -21.595  0.2030E+02  0.1470E+02
    -21.581  0.2057E+02  0.1499E+02
    -21.567  0.2085E+02  0.1528E+02
    -21.553  0.2114E+02  0.1557E+02
    -21.539  0.2144E+02  0.1587E+02
    -21.525  0.2174E+02  0.1617E+02
    -21.511  0.2206E+02  0.1648E+02
    -21.497  0.2239E+02  0.1679E+02
    -21.483  0.2274E+02  0.1711E+02
    -21.469  0.2310E+02  0.1743E+02
    -21.455  0.2347E+02  0.1776E+02
    -21.441  0.2385E+02  0.1809E+02
    -21.427  0.2425E+02  0.1843E+02
    -21.414  0.2465E+02  0.1877E+02
    -21.400  0.2506E+02  0.1912E+02
    -21.386  0.2548E+02  0.1947E+02
    -21.372  0.2589E+02  0.1983E+02
    -21.358  0.2629E+02  0.2020E+02
    -21.344  0.2668E+02  0.2057E+02
    -21.330  0.2705E+02  0.2095E+02
    -21.316  0.2740E+02  0.2133E+02
    -21.302  0.2771E+02  0.2172E+02
    -21.288  0.2800E+02  0.2211E+02
    -21.274  0.2825E+02  0.2250E+02
    -21.260  0.2846E+02  0.2289E+02
    -21.246  0.2863E+02  0.2329E+02
    -21.232  0.2876E+02  0.2369E+02
    -21.219  0.2885E+02  0.2410E+02
    -21.205  0.2892E+02  0.2450E+02
    -21.191  0.2895E+02  0.2490E+02
    -21.177  0.2895E+02  0.2530E+02
    -21.163  0.2893E+02  0.2571E+02
    -21.149  0.2890E+02  0.2611E+02
    -21.135  0.2885E+02  0.2651E+02
    -21.121  0.2880E+02  0.2691E+02
    -21.107  0.2874E+02  0.2731E+02
    -21.093  0.2868E+02  0.2771E+02
    -21.079  0.2863E+02  0.2811E+02
    -21.065  0.2859E+02  0.2851E+02
    -21.051  0.2855E+02  0.2891E+02
    -21.038  0.2853E+02  0.2930E+02
    -21.024  0.2852E+02  0.2970E+02
    -21.010  0.2852E+02  0.3010E+02
    -20.996  0.2853E+02  0.3049E+02
    -20.982  0.2855E+02  0.3089E+02
    -20.968  0.2858E+02  0.3129E+02
    -20.954  0.2861E+02  0.3169E+02
    -20.940  0.2865E+02  0.3209E+02
    -20.926  0.2870E+02  0.3249E+02
    -20.912  0.2874E+02  0.3289E+02
    -20.898  0.2879E+02  0.3329E+02
    -20.884  0.2883E+02  0.3369E+02
    -20.870  0.2887E+02  0.3409E+02
    -20.857  0.2890E+02  0.3449E+02
    -20.843  0.2893E+02  0.3490E+02
    -20.829  0.2895E+02  0.3530E+02
    -20.815  0.2896E+02  0.3570E+02
    -20.801  0.2896E+02  0.3611E+02
    -20.787  0.2894E+02  0.3651E+02
    -20.773  0.2892E+02  0.3691E+02
    -20.759  0.2887E+02  0.3731E+02
    -20.745  0.2882E+02  0.3772E+02
    -20.731  0.2874E+02  0.3812E+02
    -20.717  0.2865E+02  0.3851E+02
    -20.703  0.2853E+02  0.3891E+02
    -20.689  0.2840E+02  0.3931E+02
    -20.676  0.2824E+02  0.3970E+02
    -20.662  0.2806E+02  0.4009E+02
    -20.648  0.2786E+02  0.4048E+02
    -20.634  0.2764E+02  0.4086E+02
    -20.620  0.2739E+02  0.4124E+02
    -20.606  0.2713E+02  0.4162E+02
    -20.592  0.2685E+02  0.4200E+02
    -20.578  0.2656E+02  0.4237E+02
    -20.564  0.2626E+02  0.4273E+02
    -20.550  0.2596E+02  0.4309E+02
    -20.536  0.2566E+02  0.4345E+02
    -20.522  0.2536E+02  0.4380E+02
    -20.508  0.2508E+02  0.4415E+02
    -20.495  0.2482E+02  0.4450E+02
    -20.481  0.2458E+02  0.4484E+02
    -20.467  0.2437E+02  0.4518E+02
    -20.453  0.2420E+02  0.4552E+02
    -20.439  0.2407E+02  0.4585E+02
    -20.425  0.2399E+02  0.4619E+02
    -20.411  0.2396E+02  0.4652E+02
    -20.397  0.2397E+02  0.4685E+02
    -20.383  0.2404E+02  0.4719E+02
    -20.369  0.2416E+02  0.4752E+02
    -20.355  0.2434E+02  0.4786E+02
    -20.341  0.2456E+02  0.4821E+02
    -20.327  0.2483E+02  0.4855E+02
    -20.314  0.2514E+02  0.4890E+02
    -20.300  0.2549E+02  0.4926E+02
    -20.286  0.2587E+02  0.4962E+02
    -20.272  0.2628E+02  0.4998E+02
    -20.258  0.2670E+02  0.5035E+02
    -20.244  0.2714E+02  0.5073E+02
    -20.230  0.2759E+02  0.5112E+02
    -20.216  0.2803E+02  0.5151E+02
    -20.202  0.2847E+02  0.5190E+02
    -20.188  0.2890E+02  0.5231E+02
    -20.174  0.2931E+02  0.5271E+02
    -20.160  0.2969E+02  0.5313E+02
    -20.146  0.3005E+02  0.5355E+02
    -20.133  0.3037E+02  0.5397E+02
    -20.119  0.3066E+02  0.5440E+02
    -20.105  0.3091E+02  0.5483E+02
    -20.091  0.3113E+02  0.5526E+02
    -20.077  0.3130E+02  0.5569E+02
    -20.063  0.3144E+02  0.5613E+02
    -20.049  0.3153E+02  0.5657E+02
    -20.035  0.3160E+02  0.5701E+02
    -20.021  0.3162E+02  0.5745E+02
    -20.007  0.3162E+02  0.5789E+02
    -19.993  0.3160E+02  0.5833E+02
    -19.979  0.3155E+02  0.5877E+02
    -19.965  0.3149E+02  0.5921E+02
    -19.952  0.3141E+02  0.5965E+02
    -19.938  0.3132E+02  0.6008E+02
    -19.924  0.3123E+02  0.6052E+02
    -19.910  0.3114E+02  0.6095E+02
    -19.896  0.3104E+02  0.6138E+02
    -19.882  0.3096E+02  0.6182E+02
    -19.868  0.3088E+02  0.6224E+02
    -19.854  0.3081E+02  0.6267E+02
    -19.840  0.3075E+02  0.6310E+02
    -19.826  0.3070E+02  0.6353E+02
    -19.812  0.3067E+02  0.6396E+02
    -19.798  0.3065E+02  0.6438E+02
    -19.784  0.3064E+02  0.6481E+02
    -19.770  0.3064E+02  0.6524E+02
    -19.757  0.3066E+02  0.6566E+02
    -19.743  0.3069E+02  0.6609E+02
    -19.729  0.3073E+02  0.6652E+02
    -19.715  0.3077E+02  0.6695E+02
    -19.701  0.3082E+02  0.6738E+02
    -19.687  0.3088E+02  0.6781E+02
    -19.673  0.3094E+02  0.6824E+02
    -19.659  0.3100E+02  0.6867E+02
    -19.645  0.3105E+02  0.6910E+02
    -19.631  0.3110E+02  0.6953E+02
    -19.617  0.3115E+02  0.6997E+02
    -19.603  0.3118E+02  0.7040E+02
    -19.589  0.3121E+02  0.7084E+02
    -19.576  0.3122E+02  0.7127E+02
    -19.562  0.3121E+02  0.7171E+02
    -19.548  0.3118E+02  0.7214E+02
    -19.534  0.3114E+02  0.7257E+02
    -19.520  0.3108E+02  0.7301E+02
    -19.506  0.3099E+02  0.7344E+02
    -19.492  0.3089E+02  0.7387E+02
    -19.478  0.3076E+02  0.7430E+02
    -19.464  0.3061E+02  0.7472E+02
    -19.450  0.3044E+02  0.7515E+02
    -19.436  0.3025E+02  0.7557E+02
    -19.422  0.3004E+02  0.7599E+02
    -19.408  0.2982E+02  0.7640E+02
    -19.395  0.2958E+02  0.7681E+02
    -19.381  0.2933E+02  0.7722E+02
    -19.367  0.2907E+02  0.7763E+02
    -19.353  0.2880E+02  0.7803E+02
    -19.339  0.2852E+02  0.7842E+02
    -19.325  0.2825E+02  0.7882E+02
    -19.311  0.2797E+02  0.7921E+02
    -19.297  0.2770E+02  0.7959E+02
    -19.283  0.2744E+02  0.7997E+02
    -19.269  0.2719E+02  0.8035E+02
    -19.255  0.2695E+02  0.8073E+02
    -19.241  0.2674E+02  0.8110E+02
    -19.227  0.2655E+02  0.8147E+02
    -19.214  0.2639E+02  0.8184E+02
    -19.200  0.2626E+02  0.8220E+02
    -19.186  0.2617E+02  0.8257E+02
    -19.172  0.2612E+02  0.8293E+02
    -19.158  0.2611E+02  0.8329E+02
    -19.144  0.2614E+02  0.8366E+02
    -19.130  0.2622E+02  0.8402E+02
    -19.116  0.2635E+02  0.8439E+02
    -19.102  0.2652E+02  0.8476E+02
    -19.088  0.2674E+02  0.8513E+02
    -19.074  0.2699E+02  0.8551E+02
    -19.060  0.2729E+02  0.8589E+02
    -19.046  0.2762E+02  0.8627E+02
    -19.033  0.2798E+02  0.8666E+02
    -19.019  0.2837E+02  0.8706E+02
    -19.005  0.2877E+02  0.8746E+02
    -18.991  0.2918E+02  0.8786E+02
    -18.977  0.2959E+02  0.8828E+02
    -18.963  0.3000E+02  0.8869E+02
    -18.949  0.3040E+02  0.8912E+02
    -18.935  0.3079E+02  0.8955E+02
    -18.921  0.3115E+02  0.8998E+02
    -18.907  0.3148E+02  0.9042E+02
    -18.893  0.3179E+02  0.9086E+02
    -18.879  0.3206E+02  0.9131E+02
    -18.865  0.3230E+02  0.9176E+02
    -18.852  0.3250E+02  0.9221E+02
    -18.838  0.3266E+02  0.9266E+02
    -18.824  0.3279E+02  0.9312E+02
    -18.810  0.3289E+02  0.9358E+02
    -18.796  0.3295E+02  0.9404E+02
    -18.782  0.3298E+02  0.9450E+02
    -18.768  0.3298E+02  0.9496E+02
    -18.754  0.3295E+02  0.9541E+02
    -18.740  0.3290E+02  0.9587E+02
    -18.726  0.3283E+02  0.9633E+02
    -18.712  0.3273E+02  0.9679E+02
    -18.698  0.3262E+02  0.9724E+02
    -18.684  0.3249E+02  0.9769E+02
    -18.671  0.3234E+02  0.9814E+02
    -18.657  0.3218E+02  0.9859E+02
    -18.643  0.3201E+02  0.9904E+02
    -18.629  0.3183E+02  0.9948E+02
    -18.615  0.3164E+02  0.9992E+02
    -18.601  0.3145E+02  0.1004E+03
    -18.587  0.3125E+02  0.1008E+03
    -18.573  0.3106E+02  0.1012E+03
    -18.559  0.3088E+02  0.1017E+03
    -18.545  0.3070E+02  0.1021E+03
    -18.531  0.3053E+02  0.1025E+03
    -18.517  0.3038E+02  0.1029E+03
    -18.503  0.3024E+02  0.1034E+03
    -18.490  0.3012E+02  0.1038E+03
    -18.476  0.3002E+02  0.1042E+03
    -18.462  0.2994E+02  0.1046E+03
    -18.448  0.2988E+02  0.1050E+03
    -18.434  0.2984E+02  0.1054E+03
    -18.420  0.2981E+02  0.1059E+03
    -18.406  0.2980E+02  0.1063E+03
    -18.392  0.2980E+02  0.1067E+03
    -18.378  0.2982E+02  0.1071E+03
    -18.364  0.2984E+02  0.1075E+03
    -18.350  0.2988E+02  0.1079E+03
    -18.336  0.2992E+02  0.1083E+03
    -18.322  0.2998E+02  0.1088E+03
    -18.308  0.3004E+02  0.1092E+03
    -18.295  0.3012E+02  0.1096E+03
    -18.281  0.3021E+02  0.1100E+03
    -18.267  0.3032E+02  0.1104E+03
    -18.253  0.3044E+02  0.1109E+03
    -18.239  0.3059E+02  0.1113E+03
    -18.225  0.3075E+02  0.1117E+03
    -18.211  0.3093E+02  0.1122E+03
    -18.197  0.3114E+02  0.1126E+03
    -18.183  0.3137E+02  0.1130E+03
    -18.169  0.3161E+02  0.1135E+03
    -18.155  0.3187E+02  0.1139E+03
    -18.141  0.3215E+02  0.1144E+03
    -18.127  0.3243E+02  0.1148E+03
    -18.114  0.3271E+02  0.1153E+03
    -18.100  0.3298E+02  0.1157E+03
    -18.086  0.3325E+02  0.1162E+03
    -18.072  0.3350E+02  0.1166E+03
    -18.058  0.3372E+02  0.1171E+03
    -18.044  0.3391E+02  0.1176E+03
    -18.030  0.3406E+02  0.1181E+03
    -18.016  0.3418E+02  0.1185E+03
    -18.002  0.3425E+02  0.1190E+03
    -17.988  0.3427E+02  0.1195E+03
    -17.974  0.3424E+02  0.1200E+03
    -17.960  0.3416E+02  0.1204E+03
    -17.946  0.3403E+02  0.1209E+03
    -17.933  0.3386E+02  0.1214E+03
    -17.919  0.3365E+02  0.1219E+03
    -17.905  0.3340E+02  0.1223E+03
    -17.891  0.3312E+02  0.1228E+03
    -17.877  0.3281E+02  0.1232E+03
    -17.863  0.3249E+02  0.1237E+03
    -17.849  0.3215E+02  0.1241E+03
    -17.835  0.3181E+02  0.1246E+03
    -17.821  0.3148E+02  0.1250E+03
    -17.807  0.3115E+02  0.1255E+03
    -17.793  0.3085E+02  0.1259E+03
    -17.779  0.3056E+02  0.1263E+03
    -17.765  0.3031E+02  0.1267E+03
    -17.752  0.3008E+02  0.1272E+03
    -17.738  0.2989E+02  0.1276E+03
    -17.724  0.2974E+02  0.1280E+03
    -17.710  0.2963E+02  0.1284E+03
    -17.696  0.2955E+02  0.1288E+03
    -17.682  0.2952E+02  0.1292E+03
    -17.668  0.2952E+02  0.1296E+03
    -17.654  0.2955E+02  0.1300E+03
    -17.640  0.2962E+02  0.1305E+03
    -17.626  0.2972E+02  0.1309E+03
    -17.612  0.2984E+02  0.1313E+03
    -17.598  0.2999E+02  0.1317E+03
    -17.584  0.3015E+02  0.1321E+03
    -17.571  0.3033E+02  0.1325E+03
    -17.557  0.3051E+02  0.1330E+03
    -17.543  0.3071E+02  0.1334E+03
    -17.529  0.3090E+02  0.1338E+03
    -17.515  0.3109E+02  0.1343E+03
    -17.501  0.3128E+02  0.1347E+03
    -17.487  0.3146E+02  0.1351E+03
    -17.473  0.3163E+02  0.1356E+03
    -17.459  0.3179E+02  0.1360E+03
    -17.445  0.3193E+02  0.1365E+03
    -17.431  0.3206E+02  0.1369E+03
    -17.417  0.3218E+02  0.1374E+03
    -17.403  0.3227E+02  0.1378E+03
    -17.390  0.3235E+02  0.1383E+03
    -17.376  0.3242E+02  0.1387E+03
    -17.362  0.3247E+02  0.1392E+03
    -17.348  0.3251E+02  0.1396E+03
    -17.334  0.3253E+02  0.1401E+03
    -17.320  0.3253E+02  0.1405E+03
    -17.306  0.3253E+02  0.1410E+03
    -17.292  0.3252E+02  0.1414E+03
    -17.278  0.3250E+02  0.1419E+03
    -17.264  0.3247E+02  0.1423E+03
    -17.250  0.3244E+02  0.1428E+03
    -17.236  0.3240E+02  0.1432E+03
    -17.222  0.3236E+02  0.1437E+03
    -17.209  0.3231E+02  0.1441E+03
    -17.195  0.3227E+02  0.1446E+03
    -17.181  0.3222E+02  0.1450E+03
    -17.167  0.3218E+02  0.1455E+03
    -17.153  0.3213E+02  0.1459E+03
    -17.139  0.3208E+02  0.1464E+03
    -17.125  0.3202E+02  0.1468E+03
    -17.111  0.3196E+02  0.1473E+03
    -17.097  0.3190E+02  0.1477E+03
    -17.083  0.3183E+02  0.1482E+03
    -17.069  0.3175E+02  0.1486E+03
    -17.055  0.3167E+02  0.1490E+03
    -17.041  0.3158E+02  0.1495E+03
    -17.028  0.3148E+02  0.1499E+03
    -17.014  0.3137E+02  0.1503E+03
    -17.000  0.3126E+02  0.1508E+03
    -16.986  0.3114E+02  0.1512E+03
    -16.972  0.3103E+02  0.1516E+03
    -16.958  0.3092E+02  0.1521E+03
    -16.944  0.3081E+02  0.1525E+03
    -16.930  0.3071E+02  0.1529E+03
    -16.916  0.3062E+02  0.1534E+03
    -16.902  0.3055E+02  0.1538E+03
    -16.888  0.3049E+02  0.1542E+03
    -16.874  0.3046E+02  0.1546E+03
    -16.860  0.3044E+02  0.1551E+03
    -16.847  0.3044E+02  0.1555E+03
    -16.833  0.3047E+02  0.1559E+03
    -16.819  0.3052E+02  0.1563E+03
    -16.805  0.3058E+02  0.1568E+03
    -16.791  0.3066E+02  0.1572E+03
    -16.777  0.3076E+02  0.1576E+03
    -16.763  0.3087E+02  0.1580E+03
    -16.749  0.3099E+02  0.1585E+03
    -16.735  0.3111E+02  0.1589E+03
    -16.721  0.3124E+02  0.1593E+03
    -16.707  0.3136E+02  0.1598E+03
    -16.693  0.3147E+02  0.1602E+03
    -16.679  0.3157E+02  0.1607E+03
    -16.665  0.3166E+02  0.1611E+03
    -16.652  0.3173E+02  0.1615E+03
    -16.638  0.3178E+02  0.1620E+03
    -16.624  0.3182E+02  0.1624E+03
    -16.610  0.3183E+02  0.1629E+03
    -16.596  0.3182E+02  0.1633E+03
    -16.582  0.3179E+02  0.1638E+03
    -16.568  0.3174E+02  0.1642E+03
    -16.554  0.3167E+02  0.1646E+03
    -16.540  0.3159E+02  0.1651E+03
    -16.526  0.3151E+02  0.1655E+03
    -16.512  0.3141E+02  0.1660E+03
    -16.498  0.3132E+02  0.1664E+03
    -16.484  0.3122E+02  0.1668E+03
    -16.471  0.3113E+02  0.1673E+03
    -16.457  0.3105E+02  0.1677E+03
    -16.443  0.3097E+02  0.1681E+03
    -16.429  0.3091E+02  0.1686E+03
    -16.415  0.3086E+02  0.1690E+03
    -16.401  0.3082E+02  0.1694E+03
    -16.387  0.3079E+02  0.1698E+03
    -16.373  0.3077E+02  0.1703E+03
    -16.359  0.3076E+02  0.1707E+03
    -16.345  0.3075E+02  0.1711E+03
    -16.331  0.3075E+02  0.1716E+03
    -16.317  0.3075E+02  0.1720E+03
    -16.303  0.3074E+02  0.1724E+03
    -16.290  0.3073E+02  0.1728E+03
    -16.276  0.3071E+02  0.1733E+03
    -16.262  0.3068E+02  0.1737E+03
    -16.248  0.3064E+02  0.1741E+03
    -16.234  0.3059E+02  0.1745E+03
    -16.220  0.3053E+02  0.1750E+03
    -16.206  0.3045E+02  0.1754E+03
    -16.192  0.3036E+02  0.1758E+03
    -16.178  0.3026E+02  0.1762E+03
    -16.164  0.3016E+02  0.1767E+03
    -16.150  0.3004E+02  0.1771E+03
    -16.136  0.2992E+02  0.1775E+03
    -16.122  0.2979E+02  0.1779E+03
    -16.109  0.2966E+02  0.1783E+03
    -16.095  0.2952E+02  0.1787E+03
    -16.081  0.2939E+02  0.1791E+03
    -16.067  0.2926E+02  0.1795E+03
    -16.053  0.2913E+02  0.1800E+03
    -16.039  0.2901E+02  0.1804E+03
    -16.025  0.2890E+02  0.1808E+03
    -16.011  0.2879E+02  0.1812E+03
    -15.997  0.2870E+02  0.1816E+03
    -15.983  0.2861E+02  0.1820E+03
    -15.969  0.2854E+02  0.1824E+03
    -15.955  0.2848E+02  0.1828E+03
    -15.941  0.2843E+02  0.1831E+03
    -15.928  0.2839E+02  0.1835E+03
    -15.914  0.2837E+02  0.1839E+03
    -15.900  0.2837E+02  0.1843E+03
    -15.886  0.2838E+02  0.1847E+03
    -15.872  0.2841E+02  0.1851E+03
    -15.858  0.2845E+02  0.1855E+03
    -15.844  0.2851E+02  0.1859E+03
    -15.830  0.2859E+02  0.1863E+03
    -15.816  0.2869E+02  0.1867E+03
    -15.802  0.2881E+02  0.1871E+03
    -15.788  0.2894E+02  0.1875E+03
    -15.774  0.2909E+02  0.1879E+03
    -15.760  0.2925E+02  0.1883E+03
    -15.747  0.2943E+02  0.1887E+03
    -15.733  0.2962E+02  0.1892E+03
    -15.719  0.2983E+02  0.1896E+03
    -15.705  0.3004E+02  0.1900E+03
    -15.691  0.3025E+02  0.1904E+03
    -15.677  0.3047E+02  0.1908E+03
    -15.663  0.3068E+02  0.1913E+03
    -15.649  0.3089E+02  0.1917E+03
    -15.635  0.3110E+02  0.1921E+03
    -15.621  0.3128E+02  0.1926E+03
    -15.607  0.3145E+02  0.1930E+03
    -15.593  0.3160E+02  0.1934E+03
    -15.579  0.3172E+02  0.1939E+03
    -15.566  0.3182E+02  0.1943E+03
    -15.552  0.3189E+02  0.1948E+03
    -15.538  0.3192E+02  0.1952E+03
    -15.524  0.3192E+02  0.1957E+03
    -15.510  0.3188E+02  0.1961E+03
    -15.496  0.3181E+02  0.1965E+03
    -15.482  0.3171E+02  0.1970E+03
    -15.468  0.3159E+02  0.1974E+03
    -15.454  0.3144E+02  0.1979E+03
    -15.440  0.3127E+02  0.1983E+03
    -15.426  0.3108E+02  0.1987E+03
    -15.412  0.3089E+02  0.1992E+03
    -15.398  0.3070E+02  0.1996E+03
    -15.385  0.3052E+02  0.2000E+03
    -15.371  0.3034E+02  0.2004E+03
    -15.357  0.3018E+02  0.2009E+03
    -15.343  0.3005E+02  0.2013E+03
    -15.329  0.2993E+02  0.2017E+03
    -15.315  0.2985E+02  0.2021E+03
    -15.301  0.2980E+02  0.2025E+03
    -15.287  0.2977E+02  0.2029E+03
    -15.273  0.2978E+02  0.2033E+03
    -15.259  0.2981E+02  0.2038E+03
    -15.245  0.2987E+02  0.2042E+03
    -15.231  0.2994E+02  0.2046E+03
    -15.217  0.3003E+02  0.2050E+03
    -15.203  0.3013E+02  0.2054E+03
    -15.190  0.3023E+02  0.2059E+03
    -15.176  0.3033E+02  0.2063E+03
    -15.162  0.3042E+02  0.2067E+03
    -15.148  0.3050E+02  0.2071E+03
    -15.134  0.3056E+02  0.2076E+03
    -15.120  0.3060E+02  0.2080E+03
    -15.106  0.3061E+02  0.2084E+03
    -15.092  0.3059E+02  0.2088E+03
    -15.078  0.3055E+02  0.2093E+03
    -15.064  0.3048E+02  0.2097E+03
    -15.050  0.3038E+02  0.2101E+03
    -15.036  0.3025E+02  0.2105E+03
    -15.022  0.3010E+02  0.2109E+03
    -15.009  0.2993E+02  0.2114E+03
    -14.995  0.2975E+02  0.2118E+03
    -14.981  0.2955E+02  0.2122E+03
    -14.967  0.2935E+02  0.2126E+03
    -14.953  0.2916E+02  0.2130E+03
    -14.939  0.2897E+02  0.2134E+03
    -14.925  0.2879E+02  0.2138E+03
    -14.911  0.2863E+02  0.2142E+03
    -14.897  0.2850E+02  0.2146E+03
    -14.883  0.2839E+02  0.2150E+03
    -14.869  0.2832E+02  0.2154E+03
    -14.855  0.2827E+02  0.2158E+03
    -14.841  0.2826E+02  0.2162E+03
    -14.828  0.2828E+02  0.2166E+03
    -14.814  0.2834E+02  0.2170E+03
    -14.800  0.2842E+02  0.2174E+03
    -14.786  0.2853E+02  0.2178E+03
    -14.772  0.2865E+02  0.2182E+03
    -14.758  0.2879E+02  0.2186E+03
    -14.744  0.2894E+02  0.2190E+03
    -14.730  0.2910E+02  0.2194E+03
    -14.716  0.2925E+02  0.2198E+03
    -14.702  0.2941E+02  0.2202E+03
    -14.688  0.2955E+02  0.2206E+03
    -14.674  0.2969E+02  0.2210E+03
    -14.660  0.2981E+02  0.2214E+03
    -14.647  0.2993E+02  0.2218E+03
    -14.633  0.3003E+02  0.2223E+03
    -14.619  0.3012E+02  0.2227E+03
    -14.605  0.3021E+02  0.2231E+03
    -14.591  0.3029E+02  0.2235E+03
    -14.577  0.3037E+02  0.2239E+03
    -14.563  0.3044E+02  0.2244E+03
    -14.549  0.3051E+02  0.2248E+03
    -14.535  0.3058E+02  0.2252E+03
    -14.521  0.3065E+02  0.2256E+03
    -14.507  0.3072E+02  0.2261E+03
    -14.493  0.3079E+02  0.2265E+03
    -14.479  0.3085E+02  0.2269E+03
    -14.466  0.3091E+02  0.2274E+03
    -14.452  0.3096E+02  0.2278E+03
    -14.438  0.3100E+02  0.2282E+03
    -14.424  0.3104E+02  0.2287E+03
    -14.410  0.3106E+02  0.2291E+03
    -14.396  0.3108E+02  0.2295E+03
    -14.382  0.3109E+02  0.2300E+03
    -14.368  0.3110E+02  0.2304E+03
    -14.354  0.3111E+02  0.2308E+03
    -14.340  0.3112E+02  0.2313E+03
    -14.326  0.3114E+02  0.2317E+03
    -14.312  0.3118E+02  0.2321E+03
    -14.298  0.3123E+02  0.2326E+03
    -14.285  0.3131E+02  0.2330E+03
    -14.271  0.3142E+02  0.2334E+03
    -14.257  0.3156E+02  0.2339E+03
    -14.243  0.3173E+02  0.2343E+03
    -14.229  0.3194E+02  0.2348E+03
    -14.215  0.3218E+02  0.2352E+03
    -14.201  0.3246E+02  0.2357E+03
    -14.187  0.3277E+02  0.2361E+03
    -14.173  0.3311E+02  0.2366E+03
    -14.159  0.3346E+02  0.2370E+03
    -14.145  0.3383E+02  0.2375E+03
    -14.131  0.3421E+02  0.2380E+03
    -14.117  0.3458E+02  0.2385E+03
    -14.104  0.3494E+02  0.2390E+03
    -14.090  0.3528E+02  0.2394E+03
    -14.076  0.3559E+02  0.2399E+03
    -14.062  0.3587E+02  0.2404E+03
    -14.048  0.3610E+02  0.2409E+03
    -14.034  0.3629E+02  0.2414E+03
    -14.020  0.3643E+02  0.2420E+03
    -14.006  0.3651E+02  0.2425E+03
    -13.992  0.3654E+02  0.2430E+03
    -13.978  0.3651E+02  0.2435E+03
    -13.964  0.3644E+02  0.2440E+03
    -13.950  0.3631E+02  0.2445E+03
    -13.936  0.3615E+02  0.2450E+03
    -13.923  0.3595E+02  0.2455E+03
    -13.909  0.3572E+02  0.2460E+03
    -13.895  0.3546E+02  0.2465E+03
    -13.881  0.3519E+02  0.2470E+03
    -13.867  0.3492E+02  0.2475E+03
    -13.853  0.3464E+02  0.2479E+03
    -13.839  0.3436E+02  0.2484E+03
    -13.825  0.3410E+02  0.2489E+03
    -13.811  0.3384E+02  0.2494E+03
    -13.797  0.3360E+02  0.2498E+03
    -13.783  0.3338E+02  0.2503E+03
    -13.769  0.3317E+02  0.2508E+03
    -13.755  0.3299E+02  0.2512E+03
    -13.741  0.3281E+02  0.2517E+03
    -13.728  0.3265E+02  0.2521E+03
    -13.714  0.3250E+02  0.2526E+03
    -13.700  0.3235E+02  0.2530E+03
    -13.686  0.3221E+02  0.2535E+03
    -13.672  0.3208E+02  0.2539E+03
    -13.658  0.3194E+02  0.2544E+03
    -13.644  0.3180E+02  0.2548E+03
    -13.630  0.3165E+02  0.2553E+03
    -13.616  0.3150E+02  0.2557E+03
    -13.602  0.3135E+02  0.2561E+03
    -13.588  0.3119E+02  0.2566E+03
    -13.574  0.3103E+02  0.2570E+03
    -13.560  0.3087E+02  0.2574E+03
    -13.547  0.3071E+02  0.2579E+03
    -13.533  0.3056E+02  0.2583E+03
    -13.519  0.3041E+02  0.2587E+03
    -13.505  0.3028E+02  0.2591E+03
    -13.491  0.3016E+02  0.2596E+03
    -13.477  0.3005E+02  0.2600E+03
    -13.463  0.2996E+02  0.2604E+03
    -13.449  0.2989E+02  0.2608E+03
    -13.435  0.2984E+02  0.2612E+03
    -13.421  0.2981E+02  0.2616E+03
    -13.407  0.2981E+02  0.2620E+03
    -13.393  0.2983E+02  0.2625E+03
    -13.379  0.2988E+02  0.2629E+03
    -13.366  0.2995E+02  0.2633E+03
    -13.352  0.3004E+02  0.2637E+03
    -13.338  0.3015E+02  0.2641E+03
    -13.324  0.3029E+02  0.2646E+03
    -13.310  0.3044E+02  0.2650E+03
    -13.296  0.3061E+02  0.2654E+03
    -13.282  0.3079E+02  0.2658E+03
    -13.268  0.3098E+02  0.2663E+03
    -13.254  0.3119E+02  0.2667E+03
    -13.240  0.3141E+02  0.2671E+03
    -13.226  0.3163E+02  0.2676E+03
    -13.212  0.3185E+02  0.2680E+03
    -13.198  0.3208E+02  0.2685E+03
    -13.185  0.3231E+02  0.2689E+03
    -13.171  0.3254E+02  0.2694E+03
    -13.157  0.3277E+02  0.2698E+03
    -13.143  0.3299E+02  0.2703E+03
    -13.129  0.3320E+02  0.2707E+03
    -13.115  0.3341E+02  0.2712E+03
    -13.101  0.3361E+02  0.2717E+03
    -13.087  0.3380E+02  0.2722E+03
    -13.073  0.3397E+02  0.2726E+03
    -13.059  0.3413E+02  0.2731E+03
    -13.045  0.3427E+02  0.2736E+03
    -13.031  0.3439E+02  0.2741E+03
    -13.017  0.3449E+02  0.2745E+03
    -13.004  0.3457E+02  0.2750E+03
    -12.990  0.3462E+02  0.2755E+03
    -12.976  0.3466E+02  0.2760E+03
    -12.962  0.3468E+02  0.2765E+03
    -12.948  0.3467E+02  0.2769E+03
    -12.934  0.3465E+02  0.2774E+03
    -12.920  0.3461E+02  0.2779E+03
    -12.906  0.3457E+02  0.2784E+03
    -12.892  0.3451E+02  0.2789E+03
    -12.878  0.3446E+02  0.2794E+03
    -12.864  0.3440E+02  0.2798E+03
    -12.850  0.3435E+02  0.2803E+03
    -12.836  0.3431E+02  0.2808E+03
    -12.823  0.3428E+02  0.2813E+03
    -12.809  0.3426E+02  0.2817E+03
    -12.795  0.3427E+02  0.2822E+03
    -12.781  0.3430E+02  0.2827E+03
    -12.767  0.3435E+02  0.2832E+03