 113 113   0   0
  0.5246164E+02  0.2068402E-08  0.1433031E-08  0.2000000E-08  0.5000000E-15
  1.000000000000000E-004
  CAR 
 unknown system                          
      3.40618660    -24.57859410 2000     -3.78822461      1.00000000
    -24.579  0.0000E+00  0.0000E+00
    -24.565  0.0000E+00  0.0000E+00
    -24.551  0.0000E+00  0.0000E+00
    -24.537  0.0000E+00  0.0000E+00
    -24.523  0.0000E+00  0.0000E+00
    -24.509  0.0000E+00  0.0000E+00
    -24.495  0.0000E+00  0.0000E+00
    -24.481  0.0000E+00  0.0000E+00
    -24.467  0.0000E+00  0.0000E+00
    -24.453  0.0000E+00  0.0000E+00
    -24.439  0.0000E+00  0.0000E+00
    -24.425  0.0000E+00  0.0000E+00
    -24.411  0.0000E+00  0.0000E+00
    -24.397  0.0000E+00  0.0000E+00
    -24.383  0.0000E+00  0.0000E+00
    -24.369  0.0000E+00  0.0000E+00
    -24.355  0.0000E+00  0.0000E+00
    -24.341  0.0000E+00  0.0000E+00
    -24.327  0.0000E+00  0.0000E+00
    -24.313  0.0000E+00  0.0000E+00
    -24.299  0.0000E+00  0.0000E+00
    -24.285  0.0000E+00  0.0000E+00
    -24.271  0.0000E+00  0.0000E+00
    -24.257  0.0000E+00  0.0000E+00
    -24.243  0.0000E+00  0.0000E+00
    -24.229  0.0000E+00  0.0000E+00
    -24.215  0.0000E+00  0.0000E+00
    -24.201  0.0000E+00  0.0000E+00
    -24.187  0.0000E+00  0.0000E+00
    -24.173  0.0000E+00  0.0000E+00
    -24.159  0.0000E+00  0.0000E+00
    -24.145  0.0000E+00  0.0000E+00
    -24.131  0.0000E+00  0.0000E+00
    -24.117  0.0000E+00  0.0000E+00
    -24.103  0.0000E+00  0.0000E+00
    -24.089  0.0000E+00  0.0000E+00
    -24.075  0.0000E+00  0.0000E+00
    -24.061  0.0000E+00  0.0000E+00
    -24.047  0.0000E+00  0.0000E+00
    -24.033  0.0000E+00  0.0000E+00
    -24.019  0.0000E+00  0.0000E+00
    -24.005  0.0000E+00  0.0000E+00
    -23.991  0.0000E+00  0.0000E+00
    -23.977  0.0000E+00  0.0000E+00
    -23.963  0.0000E+00  0.0000E+00
    -23.949  0.0000E+00  0.0000E+00
    -23.935  0.0000E+00  0.0000E+00
    -23.921  0.0000E+00  0.0000E+00
    -23.907  0.0000E+00  0.0000E+00
    -23.893  0.0000E+00  0.0000E+00
    -23.879  0.0000E+00  0.0000E+00
    -23.865  0.0000E+00  0.0000E+00
    -23.851  0.0000E+00  0.0000E+00
    -23.837  0.0000E+00  0.0000E+00
    -23.823  0.0000E+00  0.0000E+00
    -23.809  0.0000E+00  0.0000E+00
    -23.795  0.0000E+00  0.0000E+00
    -23.781  0.0000E+00  0.0000E+00
    -23.767  0.0000E+00  0.0000E+00
    -23.753  0.2644E-14  0.3701E-16
    -23.739  0.2644E-14  0.7401E-16
    -23.725  0.1322E-13  0.2591E-15
    -23.711  0.1939E-13  0.5304E-15
    -23.697  0.4141E-13  0.1110E-14
    -23.683  0.9957E-13  0.2504E-14
    -23.669  0.2115E-12  0.5465E-14
    -23.655  0.4600E-12  0.1190E-13
    -23.641  0.9807E-12  0.2563E-13
    -23.627  0.2073E-11  0.5466E-13
    -23.613  0.4349E-11  0.1155E-12
    -23.599  0.9009E-11  0.2417E-12
    -23.585  0.1851E-10  0.5007E-12
    -23.571  0.3766E-10  0.1028E-11
    -23.557  0.7585E-10  0.2090E-11
    -23.543  0.1513E-09  0.4209E-11
    -23.529  0.2991E-09  0.8395E-11
    -23.515  0.5853E-09  0.1659E-10
    -23.501  0.1134E-08  0.3247E-10
    -23.487  0.2178E-08  0.6295E-10
    -23.473  0.4140E-08  0.1209E-09
    -23.459  0.7794E-08  0.2300E-09
    -23.445  0.1453E-07  0.4335E-09
    -23.431  0.2684E-07  0.8092E-09
    -23.417  0.4909E-07  0.1496E-08
    -23.403  0.8892E-07  0.2741E-08
    -23.389  0.1595E-06  0.4974E-08
    -23.375  0.2834E-06  0.8942E-08
    -23.361  0.4988E-06  0.1592E-07
    -23.347  0.8693E-06  0.2809E-07
    -23.333  0.1500E-05  0.4910E-07
    -23.319  0.2565E-05  0.8501E-07
    -23.305  0.4343E-05  0.1458E-06
    -23.291  0.7283E-05  0.2478E-06
    -23.277  0.1210E-04  0.4171E-06
    -23.263  0.1990E-04  0.6956E-06
    -23.249  0.3241E-04  0.1149E-05
    -23.235  0.5230E-04  0.1882E-05
    -23.221  0.8359E-04  0.3052E-05
    -23.207  0.1323E-03  0.4904E-05
    -23.193  0.2074E-03  0.7808E-05
    -23.179  0.3221E-03  0.1232E-04
    -23.165  0.4954E-03  0.1925E-04
    -23.151  0.7546E-03  0.2982E-04
    -23.137  0.1139E-02  0.4576E-04
    -23.123  0.1702E-02  0.6958E-04
    -23.109  0.2519E-02  0.1048E-03
    -23.095  0.3693E-02  0.1565E-03
    -23.081  0.5363E-02  0.2316E-03
    -23.067  0.7715E-02  0.3396E-03
    -23.053  0.1099E-01  0.4935E-03
    -23.039  0.1552E-01  0.7107E-03
    -23.025  0.2169E-01  0.1014E-02
    -23.011  0.3005E-01  0.1435E-02
    -22.997  0.4122E-01  0.2012E-02
    -22.983  0.5602E-01  0.2796E-02
    -22.969  0.7543E-01  0.3852E-02
    -22.955  0.1006E+00  0.5261E-02
    -22.941  0.1329E+00  0.7122E-02
    -22.927  0.1741E+00  0.9559E-02
    -22.913  0.2258E+00  0.1272E-01
    -22.899  0.2901E+00  0.1678E-01
    -22.885  0.3694E+00  0.2195E-01
    -22.871  0.4661E+00  0.2848E-01
    -22.857  0.5827E+00  0.3663E-01
    -22.843  0.7219E+00  0.4674E-01
    -22.829  0.8863E+00  0.5915E-01
    -22.815  0.1078E+01  0.7424E-01
    -22.801  0.1300E+01  0.9245E-01
    -22.787  0.1554E+01  0.1142E+00
    -22.773  0.1842E+01  0.1400E+00
    -22.759  0.2163E+01  0.1703E+00
    -22.745  0.2519E+01  0.2055E+00
    -22.731  0.2908E+01  0.2462E+00
    -22.717  0.3329E+01  0.2928E+00
    -22.703  0.3779E+01  0.3457E+00
    -22.689  0.4255E+01  0.4053E+00
    -22.675  0.4752E+01  0.4718E+00
    -22.661  0.5264E+01  0.5455E+00
    -22.647  0.5786E+01  0.6265E+00
    -22.633  0.6311E+01  0.7149E+00
    -22.619  0.6832E+01  0.8105E+00
    -22.605  0.7341E+01  0.9133E+00
    -22.591  0.7832E+01  0.1023E+01
    -22.577  0.8298E+01  0.1139E+01
    -22.563  0.8731E+01  0.1261E+01
    -22.549  0.9128E+01  0.1389E+01
    -22.535  0.9483E+01  0.1522E+01
    -22.521  0.9794E+01  0.1659E+01
    -22.507  0.1006E+02  0.1800E+01
    -22.493  0.1027E+02  0.1944E+01
    -22.479  0.1044E+02  0.2090E+01
    -22.465  0.1057E+02  0.2238E+01
    -22.451  0.1065E+02  0.2387E+01
    -22.437  0.1069E+02  0.2536E+01
    -22.423  0.1069E+02  0.2686E+01
    -22.409  0.1067E+02  0.2835E+01
    -22.395  0.1062E+02  0.2984E+01
    -22.381  0.1055E+02  0.3132E+01
    -22.367  0.1046E+02  0.3278E+01
    -22.353  0.1037E+02  0.3423E+01
    -22.339  0.1026E+02  0.3567E+01
    -22.325  0.1016E+02  0.3709E+01
    -22.311  0.1005E+02  0.3850E+01
    -22.297  0.9947E+01  0.3989E+01
    -22.283  0.9845E+01  0.4127E+01
    -22.269  0.9747E+01  0.4263E+01
    -22.255  0.9655E+01  0.4398E+01
    -22.241  0.9568E+01  0.4532E+01
    -22.227  0.9487E+01  0.4665E+01
    -22.213  0.9412E+01  0.4797E+01
    -22.199  0.9344E+01  0.4928E+01
    -22.185  0.9284E+01  0.5058E+01
    -22.171  0.9234E+01  0.5187E+01
    -22.157  0.9195E+01  0.5316E+01
    -22.143  0.9168E+01  0.5444E+01
    -22.129  0.9155E+01  0.5572E+01
    -22.115  0.9159E+01  0.5701E+01
    -22.101  0.9179E+01  0.5829E+01
    -22.087  0.9218E+01  0.5958E+01
    -22.073  0.9276E+01  0.6088E+01
    -22.059  0.9352E+01  0.6219E+01
    -22.045  0.9445E+01  0.6351E+01
    -22.031  0.9554E+01  0.6485E+01
    -22.017  0.9675E+01  0.6620E+01
    -22.003  0.9805E+01  0.6758E+01
    -21.989  0.9941E+01  0.6897E+01
    -21.975  0.1008E+02  0.7038E+01
    -21.961  0.1021E+02  0.7181E+01
    -21.947  0.1034E+02  0.7326E+01
    -21.933  0.1046E+02  0.7472E+01
    -21.919  0.1056E+02  0.7620E+01
    -21.905  0.1065E+02  0.7769E+01
    -21.891  0.1072E+02  0.7919E+01
    -21.877  0.1078E+02  0.8070E+01
    -21.863  0.1082E+02  0.8221E+01
    -21.849  0.1085E+02  0.8373E+01
    -21.835  0.1087E+02  0.8526E+01
    -21.821  0.1089E+02  0.8678E+01
    -21.807  0.1092E+02  0.8831E+01
    -21.793  0.1095E+02  0.8984E+01
    -21.779  0.1100E+02  0.9138E+01
    -21.765  0.1108E+02  0.9293E+01
    -21.751  0.1118E+02  0.9450E+01
    -21.737  0.1133E+02  0.9609E+01
    -21.723  0.1151E+02  0.9770E+01
    -21.709  0.1175E+02  0.9934E+01
    -21.695  0.1203E+02  0.1010E+02
    -21.681  0.1236E+02  0.1028E+02
    -21.667  0.1273E+02  0.1045E+02
    -21.653  0.1315E+02  0.1064E+02
    -21.639  0.1361E+02  0.1083E+02
    -21.625  0.1410E+02  0.1103E+02
    -21.611  0.1462E+02  0.1123E+02
    -21.597  0.1514E+02  0.1144E+02
    -21.583  0.1567E+02  0.1166E+02
    -21.569  0.1619E+02  0.1189E+02
    -21.555  0.1669E+02  0.1212E+02
    -21.541  0.1717E+02  0.1236E+02
    -21.527  0.1761E+02  0.1261E+02
    -21.513  0.1800E+02  0.1286E+02
    -21.499  0.1835E+02  0.1312E+02
    -21.485  0.1864E+02  0.1338E+02
    -21.471  0.1888E+02  0.1364E+02
    -21.457  0.1907E+02  0.1391E+02
    -21.443  0.1920E+02  0.1418E+02
    -21.429  0.1929E+02  0.1445E+02
    -21.415  0.1934E+02  0.1472E+02
    -21.401  0.1935E+02  0.1499E+02
    -21.387  0.1933E+02  0.1526E+02
    -21.373  0.1928E+02  0.1553E+02
    -21.359  0.1923E+02  0.1580E+02
    -21.345  0.1916E+02  0.1607E+02
    -21.331  0.1909E+02  0.1634E+02
    -21.317  0.1901E+02  0.1660E+02
    -21.303  0.1894E+02  0.1687E+02
    -21.289  0.1887E+02  0.1713E+02
    -21.275  0.1881E+02  0.1739E+02
    -21.261  0.1876E+02  0.1766E+02
    -21.247  0.1870E+02  0.1792E+02
    -21.233  0.1866E+02  0.1818E+02
    -21.219  0.1861E+02  0.1844E+02
    -21.205  0.1857E+02  0.1870E+02
    -21.191  0.1852E+02  0.1896E+02
    -21.177  0.1847E+02  0.1922E+02
    -21.163  0.1841E+02  0.1948E+02
    -21.149  0.1834E+02  0.1973E+02
    -21.135  0.1827E+02  0.1999E+02
    -21.121  0.1819E+02  0.2024E+02
    -21.107  0.1811E+02  0.2050E+02
    -21.093  0.1801E+02  0.2075E+02
    -21.079  0.1791E+02  0.2100E+02
    -21.065  0.1781E+02  0.2125E+02
    -21.051  0.1770E+02  0.2150E+02
    -21.037  0.1758E+02  0.2174E+02
    -21.023  0.1747E+02  0.2199E+02
    -21.009  0.1736E+02  0.2223E+02
    -20.995  0.1725E+02  0.2247E+02
    -20.981  0.1714E+02  0.2271E+02
    -20.967  0.1703E+02  0.2295E+02
    -20.953  0.1693E+02  0.2319E+02
    -20.939  0.1683E+02  0.2342E+02
    -20.925  0.1673E+02  0.2366E+02
    -20.911  0.1664E+02  0.2389E+02
    -20.897  0.1656E+02  0.2412E+02
    -20.883  0.1647E+02  0.2435E+02
    -20.869  0.1640E+02  0.2458E+02
    -20.855  0.1632E+02  0.2481E+02
    -20.841  0.1626E+02  0.2504E+02
    -20.827  0.1619E+02  0.2526E+02
    -20.813  0.1613E+02  0.2549E+02
    -20.799  0.1608E+02  0.2572E+02
    -20.785  0.1603E+02  0.2594E+02
    -20.771  0.1599E+02  0.2616E+02
    -20.757  0.1596E+02  0.2639E+02
    -20.743  0.1594E+02  0.2661E+02
    -20.729  0.1594E+02  0.2683E+02
    -20.715  0.1595E+02  0.2706E+02
    -20.701  0.1598E+02  0.2728E+02
    -20.687  0.1603E+02  0.2750E+02
    -20.673  0.1609E+02  0.2773E+02
    -20.659  0.1618E+02  0.2796E+02
    -20.645  0.1628E+02  0.2818E+02
    -20.631  0.1640E+02  0.2841E+02
    -20.617  0.1654E+02  0.2865E+02
    -20.603  0.1669E+02  0.2888E+02
    -20.589  0.1685E+02  0.2912E+02
    -20.575  0.1701E+02  0.2935E+02
    -20.561  0.1717E+02  0.2959E+02
    -20.547  0.1733E+02  0.2984E+02
    -20.533  0.1748E+02  0.3008E+02
    -20.519  0.1761E+02  0.3033E+02
    -20.505  0.1772E+02  0.3058E+02
    -20.491  0.1782E+02  0.3083E+02
    -20.477  0.1789E+02  0.3108E+02
    -20.463  0.1793E+02  0.3133E+02
    -20.449  0.1794E+02  0.3158E+02
    -20.435  0.1794E+02  0.3183E+02
    -20.421  0.1790E+02  0.3208E+02
    -20.407  0.1785E+02  0.3233E+02
    -20.393  0.1778E+02  0.3258E+02
    -20.379  0.1769E+02  0.3283E+02
    -20.365  0.1758E+02  0.3307E+02
    -20.351  0.1747E+02  0.3332E+02
    -20.337  0.1735E+02  0.3356E+02
    -20.323  0.1722E+02  0.3380E+02
    -20.309  0.1709E+02  0.3404E+02
    -20.295  0.1696E+02  0.3428E+02
    -20.281  0.1682E+02  0.3451E+02
    -20.267  0.1669E+02  0.3475E+02
    -20.253  0.1654E+02  0.3498E+02
    -20.239  0.1640E+02  0.3521E+02
    -20.225  0.1625E+02  0.3543E+02
    -20.211  0.1610E+02  0.3566E+02
    -20.197  0.1594E+02  0.3588E+02
    -20.183  0.1577E+02  0.3610E+02
    -20.169  0.1561E+02  0.3632E+02
    -20.155  0.1544E+02  0.3654E+02
    -20.141  0.1527E+02  0.3675E+02
    -20.127  0.1510E+02  0.3696E+02
    -20.113  0.1494E+02  0.3717E+02
    -20.099  0.1479E+02  0.3738E+02
    -20.085  0.1466E+02  0.3759E+02
    -20.071  0.1455E+02  0.3779E+02
    -20.057  0.1446E+02  0.3799E+02
    -20.043  0.1440E+02  0.3819E+02
    -20.029  0.1437E+02  0.3839E+02
    -20.015  0.1437E+02  0.3860E+02
    -20.001  0.1441E+02  0.3880E+02
    -19.987  0.1447E+02  0.3900E+02
    -19.973  0.1457E+02  0.3920E+02
    -19.959  0.1470E+02  0.3941E+02
    -19.945  0.1486E+02  0.3962E+02
    -19.931  0.1504E+02  0.3983E+02
    -19.917  0.1524E+02  0.4004E+02
    -19.903  0.1545E+02  0.4026E+02
    -19.889  0.1568E+02  0.4048E+02
    -19.875  0.1591E+02  0.4070E+02
    -19.861  0.1613E+02  0.4093E+02
    -19.847  0.1635E+02  0.4116E+02
    -19.833  0.1657E+02  0.4139E+02
    -19.819  0.1676E+02  0.4162E+02
    -19.805  0.1694E+02  0.4186E+02
    -19.791  0.1711E+02  0.4210E+02
    -19.777  0.1725E+02  0.4234E+02
    -19.763  0.1737E+02  0.4258E+02
    -19.749  0.1748E+02  0.4283E+02
    -19.735  0.1757E+02  0.4307E+02
    -19.721  0.1764E+02  0.4332E+02
    -19.707  0.1771E+02  0.4357E+02
    -19.693  0.1777E+02  0.4382E+02
    -19.679  0.1782E+02  0.4407E+02
    -19.665  0.1788E+02  0.4432E+02
    -19.651  0.1794E+02  0.4457E+02
    -19.637  0.1802E+02  0.4482E+02
    -19.623  0.1811E+02  0.4507E+02
    -19.609  0.1822E+02  0.4533E+02
    -19.595  0.1834E+02  0.4559E+02
    -19.581  0.1849E+02  0.4584E+02
    -19.567  0.1867E+02  0.4611E+02
    -19.553  0.1886E+02  0.4637E+02
    -19.539  0.1908E+02  0.4664E+02
    -19.525  0.1932E+02  0.4691E+02
    -19.511  0.1958E+02  0.4718E+02
    -19.497  0.1985E+02  0.4746E+02
    -19.483  0.2013E+02  0.4774E+02
    -19.469  0.2041E+02  0.4803E+02
    -19.455  0.2068E+02  0.4832E+02
    -19.441  0.2095E+02  0.4861E+02
    -19.427  0.2120E+02  0.4891E+02
    -19.413  0.2142E+02  0.4921E+02
    -19.399  0.2162E+02  0.4951E+02
    -19.385  0.2178E+02  0.4981E+02
    -19.371  0.2190E+02  0.5012E+02
    -19.357  0.2198E+02  0.5043E+02
    -19.343  0.2202E+02  0.5074E+02
    -19.329  0.2201E+02  0.5104E+02
    -19.315  0.2196E+02  0.5135E+02
    -19.301  0.2187E+02  0.5166E+02
    -19.287  0.2175E+02  0.5196E+02
    -19.273  0.2158E+02  0.5227E+02
    -19.259  0.2139E+02  0.5256E+02
    -19.245  0.2118E+02  0.5286E+02
    -19.231  0.2094E+02  0.5315E+02
    -19.217  0.2070E+02  0.5344E+02
    -19.203  0.2045E+02  0.5373E+02
    -19.189  0.2021E+02  0.5401E+02
    -19.175  0.1997E+02  0.5429E+02
    -19.161  0.1975E+02  0.5457E+02
    -19.147  0.1954E+02  0.5484E+02
    -19.133  0.1935E+02  0.5511E+02
    -19.119  0.1918E+02  0.5538E+02
    -19.105  0.1903E+02  0.5565E+02
    -19.091  0.1891E+02  0.5591E+02
    -19.077  0.1881E+02  0.5618E+02
    -19.063  0.1873E+02  0.5644E+02
    -19.049  0.1867E+02  0.5670E+02
    -19.035  0.1863E+02  0.5696E+02
    -19.021  0.1860E+02  0.5722E+02
    -19.007  0.1858E+02  0.5748E+02
    -18.993  0.1858E+02  0.5774E+02
    -18.979  0.1858E+02  0.5800E+02
    -18.965  0.1858E+02  0.5826E+02
    -18.951  0.1859E+02  0.5852E+02
    -18.937  0.1860E+02  0.5878E+02
    -18.923  0.1861E+02  0.5904E+02
    -18.909  0.1862E+02  0.5930E+02
    -18.895  0.1863E+02  0.5956E+02
    -18.881  0.1864E+02  0.5983E+02
    -18.867  0.1866E+02  0.6009E+02
    -18.853  0.1868E+02  0.6035E+02
    -18.839  0.1870E+02  0.6061E+02
    -18.825  0.1873E+02  0.6087E+02
    -18.811  0.1876E+02  0.6113E+02
    -18.797  0.1879E+02  0.6140E+02
    -18.783  0.1883E+02  0.6166E+02
    -18.769  0.1886E+02  0.6193E+02
    -18.755  0.1890E+02  0.6219E+02
    -18.741  0.1893E+02  0.6245E+02
    -18.727  0.1897E+02  0.6272E+02
    -18.713  0.1899E+02  0.6299E+02
    -18.699  0.1901E+02  0.6325E+02
    -18.685  0.1903E+02  0.6352E+02
    -18.671  0.1903E+02  0.6379E+02
    -18.657  0.1903E+02  0.6405E+02
    -18.643  0.1901E+02  0.6432E+02
    -18.629  0.1898E+02  0.6458E+02
    -18.615  0.1895E+02  0.6485E+02
    -18.601  0.1890E+02  0.6511E+02
    -18.587  0.1885E+02  0.6538E+02
    -18.573  0.1879E+02  0.6564E+02
    -18.559  0.1872E+02  0.6590E+02
    -18.545  0.1865E+02  0.6616E+02
    -18.531  0.1857E+02  0.6642E+02
    -18.517  0.1850E+02  0.6668E+02
    -18.503  0.1842E+02  0.6694E+02
    -18.489  0.1835E+02  0.6720E+02
    -18.475  0.1827E+02  0.6745E+02
    -18.461  0.1820E+02  0.6771E+02
    -18.447  0.1812E+02  0.6796E+02
    -18.433  0.1805E+02  0.6821E+02
    -18.419  0.1798E+02  0.6847E+02
    -18.405  0.1791E+02  0.6872E+02
    -18.391  0.1783E+02  0.6897E+02
    -18.377  0.1776E+02  0.6921E+02
    -18.363  0.1768E+02  0.6946E+02
    -18.349  0.1760E+02  0.6971E+02
    -18.335  0.1751E+02  0.6995E+02
    -18.321  0.1742E+02  0.7020E+02
    -18.307  0.1733E+02  0.7044E+02
    -18.293  0.1723E+02  0.7068E+02
    -18.279  0.1714E+02  0.7092E+02
    -18.265  0.1704E+02  0.7116E+02
    -18.251  0.1694E+02  0.7140E+02
    -18.237  0.1684E+02  0.7163E+02
    -18.223  0.1674E+02  0.7187E+02
    -18.209  0.1665E+02  0.7210E+02
    -18.195  0.1657E+02  0.7233E+02
    -18.181  0.1650E+02  0.7256E+02
    -18.167  0.1644E+02  0.7279E+02
    -18.153  0.1639E+02  0.7302E+02
    -18.139  0.1636E+02  0.7325E+02
    -18.125  0.1635E+02  0.7348E+02
    -18.111  0.1635E+02  0.7371E+02
    -18.097  0.1637E+02  0.7394E+02
    -18.083  0.1641E+02  0.7417E+02
    -18.069  0.1647E+02  0.7440E+02
    -18.055  0.1655E+02  0.7463E+02
    -18.041  0.1665E+02  0.7486E+02
    -18.027  0.1676E+02  0.7510E+02
    -18.013  0.1688E+02  0.7533E+02
    -17.999  0.1702E+02  0.7557E+02
    -17.985  0.1718E+02  0.7581E+02
    -17.971  0.1735E+02  0.7606E+02
    -17.957  0.1752E+02  0.7630E+02
    -17.943  0.1771E+02  0.7655E+02
    -17.929  0.1791E+02  0.7680E+02
    -17.915  0.1811E+02  0.7705E+02
    -17.901  0.1832E+02  0.7731E+02
    -17.887  0.1853E+02  0.7757E+02
    -17.873  0.1874E+02  0.7783E+02
    -17.859  0.1895E+02  0.7810E+02
    -17.845  0.1916E+02  0.7837E+02
    -17.831  0.1935E+02  0.7864E+02
    -17.817  0.1954E+02  0.7891E+02
    -17.803  0.1972E+02  0.7919E+02
    -17.789  0.1987E+02  0.7946E+02
    -17.775  0.2001E+02  0.7974E+02
    -17.761  0.2012E+02  0.8003E+02
    -17.747  0.2020E+02  0.8031E+02
    -17.733  0.2026E+02  0.8059E+02
    -17.719  0.2029E+02  0.8088E+02
    -17.705  0.2028E+02  0.8116E+02
    -17.691  0.2025E+02  0.8144E+02
    -17.677  0.2018E+02  0.8173E+02
    -17.663  0.2009E+02  0.8201E+02
    -17.649  0.1997E+02  0.8229E+02
    -17.635  0.1983E+02  0.8256E+02
    -17.621  0.1968E+02  0.8284E+02
    -17.607  0.1951E+02  0.8311E+02
    -17.593  0.1934E+02  0.8338E+02
    -17.579  0.1916E+02  0.8365E+02
    -17.565  0.1899E+02  0.8392E+02
    -17.551  0.1882E+02  0.8418E+02
    -17.537  0.1867E+02  0.8444E+02
    -17.523  0.1853E+02  0.8470E+02
    -17.509  0.1842E+02  0.8496E+02
    -17.495  0.1833E+02  0.8522E+02
    -17.481  0.1826E+02  0.8547E+02
    -17.467  0.1823E+02  0.8573E+02
    -17.453  0.1822E+02  0.8598E+02
    -17.439  0.1823E+02  0.8624E+02
    -17.425  0.1828E+02  0.8649E+02
    -17.411  0.1834E+02  0.8675E+02
    -17.397  0.1842E+02  0.8701E+02
    -17.383  0.1852E+02  0.8727E+02
    -17.369  0.1863E+02  0.8753E+02
    -17.355  0.1874E+02  0.8779E+02
    -17.341  0.1886E+02  0.8805E+02
    -17.327  0.1896E+02  0.8832E+02
    -17.313  0.1906E+02  0.8859E+02
    -17.299  0.1914E+02  0.8886E+02
    -17.285  0.1920E+02  0.8912E+02
    -17.271  0.1923E+02  0.8939E+02
    -17.257  0.1923E+02  0.8966E+02
    -17.243  0.1921E+02  0.8993E+02
    -17.229  0.1915E+02  0.9020E+02
    -17.215  0.1906E+02  0.9047E+02
    -17.201  0.1894E+02  0.9073E+02
    -17.187  0.1879E+02  0.9099E+02
    -17.173  0.1862E+02  0.9126E+02
    -17.159  0.1842E+02  0.9151E+02
    -17.145  0.1821E+02  0.9177E+02
    -17.131  0.1798E+02  0.9202E+02
    -17.117  0.1774E+02  0.9227E+02
    -17.103  0.1750E+02  0.9251E+02
    -17.089  0.1725E+02  0.9275E+02
    -17.075  0.1701E+02  0.9299E+02
    -17.061  0.1678E+02  0.9323E+02
    -17.047  0.1656E+02  0.9346E+02
    -17.033  0.1635E+02  0.9369E+02
    -17.019  0.1616E+02  0.9391E+02
    -17.005  0.1600E+02  0.9414E+02
    -16.991  0.1585E+02  0.9436E+02
    -16.977  0.1572E+02  0.9458E+02
    -16.963  0.1561E+02  0.9480E+02
    -16.949  0.1553E+02  0.9502E+02
    -16.935  0.1547E+02  0.9523E+02
    -16.921  0.1543E+02  0.9545E+02
    -16.907  0.1540E+02  0.9566E+02
    -16.893  0.1540E+02  0.9588E+02
    -16.879  0.1541E+02  0.9610E+02
    -16.865  0.1544E+02  0.9631E+02
    -16.851  0.1548E+02  0.9653E+02
    -16.837  0.1553E+02  0.9675E+02
    -16.823  0.1559E+02  0.9696E+02
    -16.809  0.1567E+02  0.9718E+02
    -16.795  0.1575E+02  0.9740E+02
    -16.781  0.1584E+02  0.9763E+02
    -16.767  0.1594E+02  0.9785E+02
    -16.753  0.1604E+02  0.9807E+02
    -16.739  0.1615E+02  0.9830E+02
    -16.725  0.1626E+02  0.9853E+02
    -16.711  0.1638E+02  0.9876E+02
    -16.697  0.1650E+02  0.9899E+02
    -16.683  0.1662E+02  0.9922E+02
    -16.669  0.1674E+02  0.9945E+02
    -16.655  0.1686E+02  0.9969E+02
    -16.641  0.1698E+02  0.9993E+02
    -16.627  0.1710E+02  0.1002E+03
    -16.613  0.1722E+02  0.1004E+03
    -16.599  0.1732E+02  0.1007E+03
    -16.585  0.1742E+02  0.1009E+03
    -16.571  0.1751E+02  0.1011E+03
    -16.557  0.1759E+02  0.1014E+03
    -16.543  0.1765E+02  0.1016E+03
    -16.529  0.1770E+02  0.1019E+03
    -16.515  0.1773E+02  0.1021E+03
    -16.501  0.1775E+02  0.1024E+03
    -16.487  0.1774E+02  0.1026E+03
    -16.473  0.1772E+02  0.1029E+03
    -16.459  0.1767E+02  0.1031E+03
    -16.445  0.1761E+02  0.1034E+03
    -16.431  0.1753E+02  0.1036E+03
    -16.417  0.1744E+02  0.1039E+03
    -16.403  0.1734E+02  0.1041E+03
    -16.389  0.1723E+02  0.1043E+03
    -16.375  0.1712E+02  0.1046E+03
    -16.361  0.1702E+02  0.1048E+03
    -16.347  0.1693E+02  0.1051E+03
    -16.333  0.1685E+02  0.1053E+03
    -16.319  0.1680E+02  0.1055E+03
    -16.305  0.1678E+02  0.1058E+03
    -16.291  0.1679E+02  0.1060E+03
    -16.277  0.1685E+02  0.1062E+03
    -16.263  0.1694E+02  0.1065E+03
    -16.249  0.1708E+02  0.1067E+03
    -16.235  0.1726E+02  0.1070E+03
    -16.221  0.1749E+02  0.1072E+03
    -16.207  0.1775E+02  0.1074E+03
    -16.193  0.1805E+02  0.1077E+03
    -16.179  0.1837E+02  0.1080E+03
    -16.165  0.1871E+02  0.1082E+03
    -16.151  0.1905E+02  0.1085E+03
    -16.137  0.1940E+02  0.1088E+03
    -16.123  0.1974E+02  0.1090E+03
    -16.109  0.2005E+02  0.1093E+03
    -16.095  0.2034E+02  0.1096E+03
    -16.081  0.2058E+02  0.1099E+03
    -16.067  0.2078E+02  0.1102E+03
    -16.053  0.2092E+02  0.1105E+03
    -16.039  0.2101E+02  0.1108E+03
    -16.025  0.2104E+02  0.1111E+03
    -16.011  0.2100E+02  0.1114E+03
    -15.997  0.2090E+02  0.1116E+03
    -15.983  0.2074E+02  0.1119E+03
    -15.969  0.2053E+02  0.1122E+03
    -15.955  0.2027E+02  0.1125E+03
    -15.941  0.1996E+02  0.1128E+03
    -15.927  0.1963E+02  0.1131E+03
    -15.913  0.1927E+02  0.1133E+03
    -15.899  0.1889E+02  0.1136E+03
    -15.885  0.1851E+02  0.1139E+03
    -15.871  0.1814E+02  0.1141E+03
    -15.857  0.1778E+02  0.1144E+03
    -15.843  0.1744E+02  0.1146E+03
    -15.829  0.1714E+02  0.1148E+03
    -15.815  0.1688E+02  0.1151E+03
    -15.801  0.1666E+02  0.1153E+03
    -15.787  0.1650E+02  0.1155E+03
    -15.773  0.1638E+02  0.1158E+03
    -15.759  0.1632E+02  0.1160E+03
    -15.745  0.1631E+02  0.1162E+03
    -15.731  0.1635E+02  0.1165E+03
    -15.717  0.1643E+02  0.1167E+03
    -15.703  0.1656E+02  0.1169E+03
    -15.689  0.1672E+02  0.1172E+03
    -15.675  0.1691E+02  0.1174E+03
    -15.661  0.1713E+02  0.1176E+03
    -15.647  0.1736E+02  0.1179E+03
    -15.633  0.1760E+02  0.1181E+03
    -15.619  0.1785E+02  0.1184E+03
    -15.605  0.1810E+02  0.1186E+03
    -15.591  0.1834E+02  0.1189E+03
    -15.577  0.1857E+02  0.1191E+03
    -15.563  0.1878E+02  0.1194E+03
    -15.549  0.1898E+02  0.1197E+03
    -15.535  0.1917E+02  0.1199E+03
    -15.521  0.1933E+02  0.1202E+03
    -15.507  0.1948E+02  0.1205E+03
    -15.493  0.1960E+02  0.1208E+03
    -15.479  0.1970E+02  0.1210E+03
    -15.465  0.1978E+02  0.1213E+03
    -15.451  0.1984E+02  0.1216E+03
    -15.437  0.1987E+02  0.1219E+03
    -15.423  0.1988E+02  0.1221E+03
    -15.409  0.1987E+02  0.1224E+03
    -15.395  0.1983E+02  0.1227E+03
    -15.381  0.1978E+02  0.1230E+03
    -15.367  0.1970E+02  0.1232E+03
    -15.353  0.1961E+02  0.1235E+03
    -15.339  0.1950E+02  0.1238E+03
    -15.325  0.1938E+02  0.1241E+03
    -15.311  0.1925E+02  0.1243E+03
    -15.297  0.1911E+02  0.1246E+03
    -15.283  0.1897E+02  0.1249E+03
    -15.269  0.1884E+02  0.1251E+03
    -15.255  0.1871E+02  0.1254E+03
    -15.241  0.1860E+02  0.1257E+03
    -15.227  0.1850E+02  0.1259E+03
    -15.213  0.1841E+02  0.1262E+03
    -15.199  0.1835E+02  0.1264E+03
    -15.185  0.1830E+02  0.1267E+03
    -15.171  0.1828E+02  0.1269E+03
    -15.157  0.1827E+02  0.1272E+03
    -15.143  0.1828E+02  0.1275E+03
    -15.129  0.1831E+02  0.1277E+03
    -15.115  0.1835E+02  0.1280E+03
    -15.101  0.1840E+02  0.1282E+03
    -15.087  0.1846E+02  0.1285E+03
    -15.073  0.1852E+02  0.1287E+03
    -15.059  0.1859E+02  0.1290E+03
    -15.045  0.1865E+02  0.1293E+03
    -15.031  0.1872E+02  0.1295E+03
    -15.017  0.1878E+02  0.1298E+03
    -15.003  0.1884E+02  0.1301E+03
    -14.989  0.1889E+02  0.1303E+03
    -14.975  0.1894E+02  0.1306E+03
    -14.961  0.1899E+02  0.1308E+03
    -14.947  0.1903E+02  0.1311E+03
    -14.933  0.1908E+02  0.1314E+03
    -14.919  0.1913E+02  0.1316E+03
    -14.905  0.1918E+02  0.1319E+03
    -14.891  0.1923E+02  0.1322E+03
    -14.877  0.1929E+02  0.1325E+03
    -14.863  0.1936E+02  0.1327E+03
    -14.849  0.1943E+02  0.1330E+03
    -14.835  0.1951E+02  0.1333E+03
    -14.821  0.1960E+02  0.1335E+03
    -14.807  0.1970E+02  0.1338E+03
    -14.793  0.1980E+02  0.1341E+03
    -14.779  0.1990E+02  0.1344E+03
    -14.765  0.2000E+02  0.1347E+03
    -14.751  0.2010E+02  0.1349E+03
    -14.737  0.2020E+02  0.1352E+03
    -14.723  0.2029E+02  0.1355E+03
    -14.709  0.2036E+02  0.1358E+03
    -14.695  0.2043E+02  0.1361E+03
    -14.681  0.2048E+02  0.1364E+03
    -14.667  0.2051E+02  0.1367E+03
    -14.653  0.2053E+02  0.1369E+03
    -14.639  0.2054E+02  0.1372E+03
    -14.625  0.2053E+02  0.1375E+03
    -14.611  0.2051E+02  0.1378E+03
    -14.597  0.2047E+02  0.1381E+03
    -14.583  0.2044E+02  0.1384E+03
    -14.569  0.2039E+02  0.1387E+03
    -14.555  0.2035E+02  0.1389E+03
    -14.541  0.2031E+02  0.1392E+03
    -14.527  0.2027E+02  0.1395E+03
    -14.513  0.2023E+02  0.1398E+03
    -14.499  0.2020E+02  0.1401E+03
    -14.485  0.2018E+02  0.1404E+03
    -14.471  0.2016E+02  0.1406E+03
    -14.457  0.2015E+02  0.1409E+03
    -14.443  0.2015E+02  0.1412E+03
    -14.429  0.2014E+02  0.1415E+03
    -14.415  0.2015E+02  0.1418E+03
    -14.401  0.2015E+02  0.1421E+03
    -14.387  0.2016E+02  0.1423E+03
    -14.373  0.2016E+02  0.1426E+03
    -14.359  0.2016E+02  0.1429E+03
    -14.345  0.2016E+02  0.1432E+03
    -14.331  0.2016E+02  0.1435E+03
    -14.317  0.2014E+02  0.1437E+03
    -14.303  0.2013E+02  0.1440E+03
    -14.289  0.2010E+02  0.1443E+03
    -14.275  0.2007E+02  0.1446E+03
    -14.261  0.2003E+02  0.1449E+03
    -14.247  0.1998E+02  0.1451E+03
    -14.233  0.1992E+02  0.1454E+03
    -14.219  0.1985E+02  0.1457E+03
    -14.205  0.1977E+02  0.1460E+03
    -14.191  0.1967E+02  0.1463E+03
    -14.177  0.1956E+02  0.1465E+03
    -14.163  0.1944E+02  0.1468E+03
    -14.149  0.1930E+02  0.1471E+03
    -14.135  0.1914E+02  0.1473E+03
    -14.121  0.1898E+02  0.1476E+03
    -14.107  0.1880E+02  0.1479E+03
    -14.093  0.1862E+02  0.1481E+03
    -14.079  0.1843E+02  0.1484E+03
    -14.065  0.1823E+02  0.1486E+03
    -14.051  0.1803E+02  0.1489E+03
    -14.037  0.1784E+02  0.1491E+03
    -14.023  0.1765E+02  0.1494E+03
    -14.009  0.1747E+02  0.1496E+03
    -13.995  0.1731E+02  0.1499E+03
    -13.981  0.1716E+02  0.1501E+03
    -13.967  0.1703E+02  0.1504E+03
    -13.953  0.1693E+02  0.1506E+03
    -13.939  0.1686E+02  0.1508E+03
    -13.925  0.1682E+02  0.1511E+03
    -13.911  0.1680E+02  0.1513E+03
    -13.897  0.1682E+02  0.1515E+03
    -13.883  0.1686E+02  0.1518E+03
    -13.869  0.1694E+02  0.1520E+03
    -13.855  0.1704E+02  0.1523E+03
    -13.841  0.1717E+02  0.1525E+03
    -13.827  0.1732E+02  0.1527E+03
    -13.813  0.1748E+02  0.1530E+03
    -13.799  0.1766E+02  0.1532E+03
    -13.785  0.1785E+02  0.1535E+03
    -13.771  0.1804E+02  0.1537E+03
    -13.757  0.1823E+02  0.1540E+03
    -13.743  0.1841E+02  0.1542E+03
    -13.729  0.1859E+02  0.1545E+03
    -13.715  0.1876E+02  0.1548E+03
    -13.701  0.1891E+02  0.1550E+03
    -13.687  0.1904E+02  0.1553E+03
    -13.673  0.1916E+02  0.1556E+03
    -13.659  0.1926E+02  0.1558E+03
    -13.645  0.1934E+02  0.1561E+03
    -13.631  0.1940E+02  0.1564E+03
    -13.617  0.1944E+02  0.1566E+03
    -13.603  0.1946E+02  0.1569E+03
    -13.589  0.1947E+02  0.1572E+03
    -13.575  0.1945E+02  0.1575E+03
    -13.561  0.1942E+02  0.1577E+03
    -13.547  0.1937E+02  0.1580E+03
    -13.533  0.1930E+02  0.1583E+03
    -13.519  0.1922E+02  0.1585E+03
    -13.505  0.1911E+02  0.1588E+03
    -13.491  0.1900E+02  0.1591E+03
    -13.477  0.1887E+02  0.1593E+03
    -13.463  0.1873E+02  0.1596E+03
    -13.449  0.1859E+02  0.1599E+03
    -13.435  0.1843E+02  0.1601E+03
    -13.421  0.1828E+02  0.1604E+03
    -13.407  0.1813E+02  0.1606E+03
    -13.393  0.1798E+02  0.1609E+03
    -13.379  0.1785E+02  0.1611E+03
    -13.365  0.1773E+02  0.1614E+03
    -13.351  0.1763E+02  0.1616E+03
    -13.337  0.1755E+02  0.1619E+03
    -13.323  0.1751E+02  0.1621E+03
    -13.309  0.1749E+02  0.1624E+03
    -13.295  0.1751E+02  0.1626E+03
    -13.281  0.1757E+02  0.1629E+03
    -13.267  0.1766E+02  0.1631E+03
    -13.253  0.1778E+02  0.1634E+03
    -13.239  0.1793E+02  0.1636E+03
    -13.225  0.1811E+02  0.1639E+03
    -13.211  0.1831E+02  0.1641E+03
    -13.197  0.1854E+02  0.1644E+03
    -13.183  0.1877E+02  0.1646E+03
    -13.169  0.1901E+02  0.1649E+03
    -13.155  0.1924E+02  0.1652E+03
    -13.141  0.1947E+02  0.1654E+03
    -13.127  0.1968E+02  0.1657E+03
    -13.113  0.1988E+02  0.1660E+03
    -13.099  0.2005E+02  0.1663E+03
    -13.085  0.2019E+02  0.1666E+03
    -13.071  0.2031E+02  0.1668E+03
    -13.057  0.2039E+02  0.1671E+03
    -13.043  0.2045E+02  0.1674E+03
    -13.029  0.2048E+02  0.1677E+03