 149 149   0   0
  0.5163834E+02  0.2389853E-08  0.1609746E-08  0.2000000E-08  0.5000000E-15
  1.000000000000000E-004
  CAR 
 unknown system                          
      3.15307762    -24.57748057 2000     -3.79253010      1.00000000
    -24.577  0.0000E+00  0.0000E+00
    -24.564  0.0000E+00  0.0000E+00
    -24.550  0.0000E+00  0.0000E+00
    -24.536  0.0000E+00  0.0000E+00
    -24.522  0.0000E+00  0.0000E+00
    -24.508  0.0000E+00  0.0000E+00
    -24.494  0.0000E+00  0.0000E+00
    -24.480  0.0000E+00  0.0000E+00
    -24.467  0.0000E+00  0.0000E+00
    -24.453  0.0000E+00  0.0000E+00
    -24.439  0.0000E+00  0.0000E+00
    -24.425  0.0000E+00  0.0000E+00
    -24.411  0.0000E+00  0.0000E+00
    -24.397  0.0000E+00  0.0000E+00
    -24.383  0.0000E+00  0.0000E+00
    -24.369  0.0000E+00  0.0000E+00
    -24.356  0.0000E+00  0.0000E+00
    -24.342  0.0000E+00  0.0000E+00
    -24.328  0.0000E+00  0.0000E+00
    -24.314  0.0000E+00  0.0000E+00
    -24.300  0.0000E+00  0.0000E+00
    -24.286  0.0000E+00  0.0000E+00
    -24.272  0.0000E+00  0.0000E+00
    -24.258  0.0000E+00  0.0000E+00
    -24.245  0.0000E+00  0.0000E+00
    -24.231  0.0000E+00  0.0000E+00
    -24.217  0.0000E+00  0.0000E+00
    -24.203  0.0000E+00  0.0000E+00
    -24.189  0.0000E+00  0.0000E+00
    -24.175  0.0000E+00  0.0000E+00
    -24.161  0.0000E+00  0.0000E+00
    -24.147  0.0000E+00  0.0000E+00
    -24.134  0.0000E+00  0.0000E+00
    -24.120  0.0000E+00  0.0000E+00
    -24.106  0.0000E+00  0.0000E+00
    -24.092  0.0000E+00  0.0000E+00
    -24.078  0.0000E+00  0.0000E+00
    -24.064  0.0000E+00  0.0000E+00
    -24.050  0.0000E+00  0.0000E+00
    -24.036  0.0000E+00  0.0000E+00
    -24.023  0.0000E+00  0.0000E+00
    -24.009  0.0000E+00  0.0000E+00
    -23.995  0.0000E+00  0.0000E+00
    -23.981  0.0000E+00  0.0000E+00
    -23.967  0.0000E+00  0.0000E+00
    -23.953  0.0000E+00  0.0000E+00
    -23.939  0.0000E+00  0.0000E+00
    -23.925  0.0000E+00  0.0000E+00
    -23.912  0.0000E+00  0.0000E+00
    -23.898  0.0000E+00  0.0000E+00
    -23.884  0.0000E+00  0.0000E+00
    -23.870  0.0000E+00  0.0000E+00
    -23.856  0.0000E+00  0.0000E+00
    -23.842  0.0000E+00  0.0000E+00
    -23.828  0.0000E+00  0.0000E+00
    -23.815  0.0000E+00  0.0000E+00
    -23.801  0.0000E+00  0.0000E+00
    -23.787  0.0000E+00  0.0000E+00
    -23.773  0.0000E+00  0.0000E+00
    -23.759  0.8003E-14  0.1110E-15
    -23.745  0.0000E+00  0.1110E-15
    -23.731  0.1601E-13  0.3331E-15
    -23.717  0.2668E-13  0.7031E-15
    -23.704  0.6403E-13  0.1591E-14
    -23.690  0.1387E-12  0.3516E-14
    -23.676  0.2988E-12  0.7661E-14
    -23.662  0.6367E-12  0.1649E-13
    -23.648  0.1356E-11  0.3531E-13
    -23.634  0.2853E-11  0.7488E-13
    -23.620  0.5932E-11  0.1572E-12
    -23.606  0.1223E-10  0.3268E-12
    -23.593  0.2497E-10  0.6731E-12
    -23.579  0.5049E-10  0.1374E-11
    -23.565  0.1011E-09  0.2776E-11
    -23.551  0.2006E-09  0.5559E-11
    -23.537  0.3941E-09  0.1103E-10
    -23.523  0.7670E-09  0.2167E-10
    -23.509  0.1478E-08  0.4217E-10
    -23.495  0.2822E-08  0.8132E-10
    -23.482  0.5335E-08  0.1553E-09
    -23.468  0.9989E-08  0.2939E-09
    -23.454  0.1853E-07  0.5509E-09
    -23.440  0.3403E-07  0.1023E-08
    -23.426  0.6191E-07  0.1882E-08
    -23.412  0.1116E-06  0.3429E-08
    -23.398  0.1991E-06  0.6191E-08
    -23.384  0.3519E-06  0.1107E-07
    -23.371  0.6160E-06  0.1962E-07
    -23.357  0.1068E-05  0.3444E-07
    -23.343  0.1834E-05  0.5988E-07
    -23.329  0.3120E-05  0.1032E-06
    -23.315  0.5256E-05  0.1761E-06
    -23.301  0.8769E-05  0.2977E-06
    -23.287  0.1449E-04  0.4987E-06
    -23.273  0.2372E-04  0.8278E-06
    -23.260  0.3845E-04  0.1361E-05
    -23.246  0.6173E-04  0.2217E-05
    -23.232  0.9816E-04  0.3579E-05
    -23.218  0.1546E-03  0.5724E-05
    -23.204  0.2412E-03  0.9069E-05
    -23.190  0.3726E-03  0.1424E-04
    -23.176  0.5701E-03  0.2215E-04
    -23.163  0.8640E-03  0.3413E-04
    -23.149  0.1297E-02  0.5212E-04
    -23.135  0.1928E-02  0.7887E-04
    -23.121  0.2839E-02  0.1183E-03
    -23.107  0.4140E-02  0.1757E-03
    -23.093  0.5980E-02  0.2587E-03
    -23.079  0.8556E-02  0.3773E-03
    -23.065  0.1212E-01  0.5455E-03
    -23.052  0.1701E-01  0.7815E-03
    -23.038  0.2365E-01  0.1110E-02
    -23.024  0.3255E-01  0.1561E-02
    -23.010  0.4438E-01  0.2177E-02
    -22.996  0.5993E-01  0.3008E-02
    -22.982  0.8016E-01  0.4120E-02
    -22.968  0.1062E+00  0.5593E-02
    -22.954  0.1393E+00  0.7526E-02
    -22.941  0.1810E+00  0.1004E-01
    -22.927  0.2330E+00  0.1327E-01
    -22.913  0.2970E+00  0.1739E-01
    -22.899  0.3750E+00  0.2259E-01
    -22.885  0.4689E+00  0.2910E-01
    -22.871  0.5807E+00  0.3715E-01
    -22.857  0.7124E+00  0.4703E-01
    -22.843  0.8655E+00  0.5904E-01
    -22.830  0.1041E+01  0.7349E-01
    -22.816  0.1241E+01  0.9070E-01
    -22.802  0.1465E+01  0.1110E+00
    -22.788  0.1713E+01  0.1348E+00
    -22.774  0.1983E+01  0.1623E+00
    -22.760  0.2275E+01  0.1939E+00
    -22.746  0.2584E+01  0.2297E+00
    -22.732  0.2908E+01  0.2700E+00
    -22.719  0.3241E+01  0.3150E+00
    -22.705  0.3577E+01  0.3646E+00
    -22.691  0.3912E+01  0.4189E+00
    -22.677  0.4237E+01  0.4777E+00
    -22.663  0.4547E+01  0.5407E+00
    -22.649  0.4833E+01  0.6078E+00
    -22.635  0.5090E+01  0.6784E+00
    -22.621  0.5312E+01  0.7521E+00
    -22.608  0.5494E+01  0.8283E+00
    -22.594  0.5632E+01  0.9064E+00
    -22.580  0.5723E+01  0.9858E+00
    -22.566  0.5768E+01  0.1066E+01
    -22.552  0.5767E+01  0.1146E+01
    -22.538  0.5724E+01  0.1225E+01
    -22.524  0.5642E+01  0.1304E+01
    -22.511  0.5529E+01  0.1380E+01
    -22.497  0.5391E+01  0.1455E+01
    -22.483  0.5237E+01  0.1528E+01
    -22.469  0.5076E+01  0.1598E+01
    -22.455  0.4919E+01  0.1666E+01
    -22.441  0.4774E+01  0.1733E+01
    -22.427  0.4651E+01  0.1797E+01
    -22.413  0.4558E+01  0.1860E+01
    -22.400  0.4503E+01  0.1923E+01
    -22.386  0.4492E+01  0.1985E+01
    -22.372  0.4529E+01  0.2048E+01
    -22.358  0.4618E+01  0.2112E+01
    -22.344  0.4759E+01  0.2178E+01
    -22.330  0.4953E+01  0.2247E+01
    -22.316  0.5198E+01  0.2319E+01
    -22.302  0.5490E+01  0.2395E+01
    -22.289  0.5826E+01  0.2476E+01
    -22.275  0.6201E+01  0.2562E+01
    -22.261  0.6607E+01  0.2653E+01
    -22.247  0.7041E+01  0.2751E+01
    -22.233  0.7494E+01  0.2855E+01
    -22.219  0.7963E+01  0.2965E+01
    -22.205  0.8440E+01  0.3083E+01
    -22.191  0.8922E+01  0.3206E+01
    -22.178  0.9404E+01  0.3337E+01
    -22.164  0.9883E+01  0.3474E+01
    -22.150  0.1036E+02  0.3618E+01
    -22.136  0.1082E+02  0.3768E+01
    -22.122  0.1128E+02  0.3924E+01
    -22.108  0.1173E+02  0.4087E+01
    -22.094  0.1217E+02  0.4256E+01
    -22.080  0.1261E+02  0.4431E+01
    -22.067  0.1303E+02  0.4612E+01
    -22.053  0.1345E+02  0.4798E+01
    -22.039  0.1386E+02  0.4990E+01
    -22.025  0.1425E+02  0.5188E+01
    -22.011  0.1464E+02  0.5391E+01
    -21.997  0.1502E+02  0.5600E+01
    -21.983  0.1539E+02  0.5813E+01
    -21.970  0.1574E+02  0.6031E+01
    -21.956  0.1607E+02  0.6254E+01
    -21.942  0.1639E+02  0.6482E+01
    -21.928  0.1669E+02  0.6713E+01
    -21.914  0.1696E+02  0.6948E+01
    -21.900  0.1721E+02  0.7187E+01
    -21.886  0.1743E+02  0.7429E+01
    -21.872  0.1763E+02  0.7674E+01
    -21.859  0.1781E+02  0.7921E+01
    -21.845  0.1796E+02  0.8170E+01
    -21.831  0.1808E+02  0.8420E+01
    -21.817  0.1819E+02  0.8673E+01
    -21.803  0.1828E+02  0.8926E+01
    -21.789  0.1835E+02  0.9181E+01
    -21.775  0.1841E+02  0.9436E+01
    -21.761  0.1847E+02  0.9692E+01
    -21.748  0.1853E+02  0.9950E+01
    -21.734  0.1860E+02  0.1021E+02
    -21.720  0.1867E+02  0.1047E+02
    -21.706  0.1875E+02  0.1073E+02
    -21.692  0.1886E+02  0.1099E+02
    -21.678  0.1898E+02  0.1125E+02
    -21.664  0.1912E+02  0.1152E+02
    -21.650  0.1929E+02  0.1178E+02
    -21.637  0.1947E+02  0.1205E+02
    -21.623  0.1968E+02  0.1233E+02
    -21.609  0.1991E+02  0.1260E+02
    -21.595  0.2015E+02  0.1288E+02
    -21.581  0.2040E+02  0.1317E+02
    -21.567  0.2066E+02  0.1345E+02
    -21.553  0.2092E+02  0.1374E+02
    -21.539  0.2117E+02  0.1404E+02
    -21.526  0.2140E+02  0.1433E+02
    -21.512  0.2162E+02  0.1463E+02
    -21.498  0.2181E+02  0.1494E+02
    -21.484  0.2198E+02  0.1524E+02
    -21.470  0.2211E+02  0.1555E+02
    -21.456  0.2221E+02  0.1586E+02
    -21.442  0.2228E+02  0.1616E+02
    -21.428  0.2231E+02  0.1647E+02
    -21.415  0.2231E+02  0.1678E+02
    -21.401  0.2228E+02  0.1709E+02
    -21.387  0.2223E+02  0.1740E+02
    -21.373  0.2216E+02  0.1771E+02
    -21.359  0.2209E+02  0.1801E+02
    -21.345  0.2201E+02  0.1832E+02
    -21.331  0.2194E+02  0.1862E+02
    -21.318  0.2188E+02  0.1893E+02
    -21.304  0.2184E+02  0.1923E+02
    -21.290  0.2183E+02  0.1953E+02
    -21.276  0.2183E+02  0.1984E+02
    -21.262  0.2187E+02  0.2014E+02
    -21.248  0.2193E+02  0.2044E+02
    -21.234  0.2201E+02  0.2075E+02
    -21.220  0.2210E+02  0.2106E+02
    -21.207  0.2221E+02  0.2136E+02
    -21.193  0.2232E+02  0.2167E+02
    -21.179  0.2243E+02  0.2199E+02
    -21.165  0.2253E+02  0.2230E+02
    -21.151  0.2260E+02  0.2261E+02
    -21.137  0.2266E+02  0.2293E+02
    -21.123  0.2268E+02  0.2324E+02
    -21.109  0.2267E+02  0.2355E+02
    -21.096  0.2263E+02  0.2387E+02
    -21.082  0.2255E+02  0.2418E+02
    -21.068  0.2244E+02  0.2449E+02
    -21.054  0.2230E+02  0.2480E+02
    -21.040  0.2214E+02  0.2511E+02
    -21.026  0.2196E+02  0.2541E+02
    -21.012  0.2176E+02  0.2572E+02
    -20.998  0.2156E+02  0.2601E+02
    -20.985  0.2137E+02  0.2631E+02
    -20.971  0.2118E+02  0.2661E+02
    -20.957  0.2100E+02  0.2690E+02
    -20.943  0.2084E+02  0.2719E+02
    -20.929  0.2070E+02  0.2747E+02
    -20.915  0.2058E+02  0.2776E+02
    -20.901  0.2049E+02  0.2804E+02
    -20.887  0.2043E+02  0.2833E+02
    -20.874  0.2040E+02  0.2861E+02
    -20.860  0.2039E+02  0.2889E+02
    -20.846  0.2040E+02  0.2917E+02
    -20.832  0.2044E+02  0.2946E+02
    -20.818  0.2050E+02  0.2974E+02
    -20.804  0.2058E+02  0.3003E+02
    -20.790  0.2067E+02  0.3031E+02
    -20.776  0.2076E+02  0.3060E+02
    -20.763  0.2087E+02  0.3089E+02
    -20.749  0.2097E+02  0.3118E+02
    -20.735  0.2107E+02  0.3148E+02
    -20.721  0.2117E+02  0.3177E+02
    -20.707  0.2126E+02  0.3206E+02
    -20.693  0.2133E+02  0.3236E+02
    -20.679  0.2140E+02  0.3266E+02
    -20.666  0.2145E+02  0.3295E+02
    -20.652  0.2148E+02  0.3325E+02
    -20.638  0.2150E+02  0.3355E+02
    -20.624  0.2150E+02  0.3385E+02
    -20.610  0.2150E+02  0.3415E+02
    -20.596  0.2148E+02  0.3444E+02
    -20.582  0.2146E+02  0.3474E+02
    -20.568  0.2143E+02  0.3504E+02
    -20.555  0.2140E+02  0.3534E+02
    -20.541  0.2138E+02  0.3563E+02
    -20.527  0.2136E+02  0.3593E+02
    -20.513  0.2135E+02  0.3623E+02
    -20.499  0.2136E+02  0.3652E+02
    -20.485  0.2138E+02  0.3682E+02
    -20.471  0.2142E+02  0.3712E+02
    -20.457  0.2147E+02  0.3741E+02
    -20.444  0.2155E+02  0.3771E+02
    -20.430  0.2164E+02  0.3801E+02
    -20.416  0.2175E+02  0.3831E+02
    -20.402  0.2187E+02  0.3862E+02
    -20.388  0.2201E+02  0.3892E+02
    -20.374  0.2216E+02  0.3923E+02
    -20.360  0.2233E+02  0.3954E+02
    -20.346  0.2250E+02  0.3985E+02
    -20.333  0.2267E+02  0.4017E+02
    -20.319  0.2285E+02  0.4048E+02
    -20.305  0.2303E+02  0.4080E+02
    -20.291  0.2320E+02  0.4113E+02
    -20.277  0.2337E+02  0.4145E+02
    -20.263  0.2354E+02  0.4178E+02
    -20.249  0.2369E+02  0.4210E+02
    -20.235  0.2384E+02  0.4244E+02
    -20.222  0.2397E+02  0.4277E+02
    -20.208  0.2409E+02  0.4310E+02
    -20.194  0.2419E+02  0.4344E+02
    -20.180  0.2427E+02  0.4377E+02
    -20.166  0.2434E+02  0.4411E+02
    -20.152  0.2439E+02  0.4445E+02
    -20.138  0.2442E+02  0.4479E+02
    -20.124  0.2442E+02  0.4513E+02
    -20.111  0.2441E+02  0.4547E+02
    -20.097  0.2438E+02  0.4580E+02
    -20.083  0.2433E+02  0.4614E+02
    -20.069  0.2426E+02  0.4648E+02
    -20.055  0.2417E+02  0.4681E+02
    -20.041  0.2407E+02  0.4715E+02
    -20.027  0.2395E+02  0.4748E+02
    -20.014  0.2383E+02  0.4781E+02
    -20.000  0.2369E+02  0.4814E+02
    -19.986  0.2356E+02  0.4847E+02
    -19.972  0.2342E+02  0.4879E+02
    -19.958  0.2328E+02  0.4911E+02
    -19.944  0.2314E+02  0.4943E+02
    -19.930  0.2301E+02  0.4975E+02
    -19.916  0.2288E+02  0.5007E+02
    -19.903  0.2276E+02  0.5039E+02
    -19.889  0.2264E+02  0.5070E+02
    -19.875  0.2253E+02  0.5101E+02
    -19.861  0.2243E+02  0.5132E+02
    -19.847  0.2233E+02  0.5163E+02
    -19.833  0.2223E+02  0.5194E+02
    -19.819  0.2213E+02  0.5225E+02
    -19.805  0.2204E+02  0.5256E+02
    -19.792  0.2195E+02  0.5286E+02
    -19.778  0.2185E+02  0.5316E+02
    -19.764  0.2176E+02  0.5346E+02
    -19.750  0.2167E+02  0.5377E+02
    -19.736  0.2159E+02  0.5407E+02
    -19.722  0.2152E+02  0.5436E+02
    -19.708  0.2145E+02  0.5466E+02
    -19.694  0.2140E+02  0.5496E+02
    -19.681  0.2137E+02  0.5525E+02
    -19.667  0.2135E+02  0.5555E+02
    -19.653  0.2136E+02  0.5585E+02
    -19.639  0.2140E+02  0.5614E+02
    -19.625  0.2146E+02  0.5644E+02
    -19.611  0.2155E+02  0.5674E+02
    -19.597  0.2167E+02  0.5704E+02
    -19.583  0.2182E+02  0.5734E+02
    -19.570  0.2199E+02  0.5765E+02
    -19.556  0.2218E+02  0.5796E+02
    -19.542  0.2240E+02  0.5827E+02
    -19.528  0.2262E+02  0.5858E+02
    -19.514  0.2285E+02  0.5890E+02
    -19.500  0.2308E+02  0.5922E+02
    -19.486  0.2332E+02  0.5954E+02
    -19.473  0.2354E+02  0.5987E+02
    -19.459  0.2375E+02  0.6020E+02
    -19.445  0.2394E+02  0.6053E+02
    -19.431  0.2411E+02  0.6086E+02
    -19.417  0.2426E+02  0.6120E+02
    -19.403  0.2439E+02  0.6154E+02
    -19.389  0.2449E+02  0.6188E+02
    -19.375  0.2456E+02  0.6222E+02
    -19.362  0.2462E+02  0.6256E+02
    -19.348  0.2465E+02  0.6290E+02
    -19.334  0.2466E+02  0.6325E+02
    -19.320  0.2466E+02  0.6359E+02
    -19.306  0.2465E+02  0.6393E+02
    -19.292  0.2463E+02  0.6427E+02
    -19.278  0.2460E+02  0.6461E+02
    -19.264  0.2458E+02  0.6495E+02
    -19.251  0.2455E+02  0.6529E+02
    -19.237  0.2453E+02  0.6563E+02
    -19.223  0.2451E+02  0.6597E+02
    -19.209  0.2450E+02  0.6631E+02
    -19.195  0.2450E+02  0.6665E+02
    -19.181  0.2451E+02  0.6699E+02
    -19.167  0.2453E+02  0.6733E+02
    -19.153  0.2455E+02  0.6767E+02
    -19.140  0.2459E+02  0.6802E+02
    -19.126  0.2464E+02  0.6836E+02
    -19.112  0.2469E+02  0.6870E+02
    -19.098  0.2476E+02  0.6904E+02
    -19.084  0.2484E+02  0.6939E+02
    -19.070  0.2492E+02  0.6973E+02
    -19.056  0.2502E+02  0.7008E+02
    -19.042  0.2512E+02  0.7043E+02
    -19.029  0.2524E+02  0.7078E+02
    -19.015  0.2537E+02  0.7113E+02
    -19.001  0.2551E+02  0.7149E+02
    -18.987  0.2566E+02  0.7184E+02
    -18.973  0.2582E+02  0.7220E+02
    -18.959  0.2599E+02  0.7256E+02
    -18.945  0.2616E+02  0.7292E+02
    -18.931  0.2635E+02  0.7329E+02
    -18.918  0.2653E+02  0.7366E+02
    -18.904  0.2672E+02  0.7403E+02
    -18.890  0.2690E+02  0.7440E+02
    -18.876  0.2708E+02  0.7478E+02
    -18.862  0.2725E+02  0.7515E+02
    -18.848  0.2740E+02  0.7553E+02
    -18.834  0.2753E+02  0.7592E+02
    -18.821  0.2764E+02  0.7630E+02
    -18.807  0.2773E+02  0.7668E+02
    -18.793  0.2778E+02  0.7707E+02
    -18.779  0.2781E+02  0.7746E+02
    -18.765  0.2781E+02  0.7784E+02
    -18.751  0.2777E+02  0.7823E+02
    -18.737  0.2771E+02  0.7861E+02
    -18.723  0.2761E+02  0.7899E+02
    -18.710  0.2748E+02  0.7937E+02
    -18.696  0.2733E+02  0.7975E+02
    -18.682  0.2716E+02  0.8013E+02
    -18.668  0.2697E+02  0.8050E+02
    -18.654  0.2676E+02  0.8088E+02
    -18.640  0.2654E+02  0.8124E+02
    -18.626  0.2631E+02  0.8161E+02
    -18.612  0.2609E+02  0.8197E+02
    -18.599  0.2587E+02  0.8233E+02
    -18.585  0.2565E+02  0.8269E+02
    -18.571  0.2545E+02  0.8304E+02
    -18.557  0.2527E+02  0.8339E+02
    -18.543  0.2511E+02  0.8374E+02
    -18.529  0.2498E+02  0.8408E+02
    -18.515  0.2487E+02  0.8443E+02
    -18.501  0.2480E+02  0.8477E+02
    -18.488  0.2475E+02  0.8512E+02
    -18.474  0.2474E+02  0.8546E+02
    -18.460  0.2475E+02  0.8580E+02
    -18.446  0.2479E+02  0.8615E+02
    -18.432  0.2486E+02  0.8649E+02
    -18.418  0.2495E+02  0.8684E+02
    -18.404  0.2505E+02  0.8719E+02
    -18.390  0.2517E+02  0.8753E+02
    -18.377  0.2530E+02  0.8789E+02
    -18.363  0.2543E+02  0.8824E+02
    -18.349  0.2556E+02  0.8859E+02
    -18.335  0.2568E+02  0.8895E+02
    -18.321  0.2579E+02  0.8931E+02
    -18.307  0.2589E+02  0.8967E+02
    -18.293  0.2597E+02  0.9003E+02
    -18.279  0.2604E+02  0.9039E+02
    -18.266  0.2608E+02  0.9075E+02
    -18.252  0.2611E+02  0.9111E+02
    -18.238  0.2611E+02  0.9147E+02
    -18.224  0.2610E+02  0.9184E+02
    -18.210  0.2608E+02  0.9220E+02
    -18.196  0.2604E+02  0.9256E+02
    -18.182  0.2599E+02  0.9292E+02
    -18.169  0.2593E+02  0.9328E+02
    -18.155  0.2587E+02  0.9364E+02
    -18.141  0.2581E+02  0.9400E+02
    -18.127  0.2575E+02  0.9435E+02
    -18.113  0.2570E+02  0.9471E+02
    -18.099  0.2566E+02  0.9507E+02
    -18.085  0.2563E+02  0.9542E+02
    -18.071  0.2562E+02  0.9578E+02
    -18.058  0.2562E+02  0.9613E+02
    -18.044  0.2563E+02  0.9649E+02
    -18.030  0.2566E+02  0.9684E+02
    -18.016  0.2570E+02  0.9720E+02
    -18.002  0.2576E+02  0.9756E+02
    -17.988  0.2582E+02  0.9792E+02
    -17.974  0.2589E+02  0.9828E+02
    -17.960  0.2596E+02  0.9864E+02
    -17.947  0.2603E+02  0.9900E+02
    -17.933  0.2610E+02  0.9936E+02
    -17.919  0.2615E+02  0.9972E+02
    -17.905  0.2620E+02  0.1001E+03
    -17.891  0.2623E+02  0.1004E+03
    -17.877  0.2623E+02  0.1008E+03
    -17.863  0.2622E+02  0.1012E+03
    -17.849  0.2618E+02  0.1015E+03
    -17.836  0.2612E+02  0.1019E+03
    -17.822  0.2603E+02  0.1023E+03
    -17.808  0.2591E+02  0.1026E+03
    -17.794  0.2576E+02  0.1030E+03
    -17.780  0.2559E+02  0.1033E+03
    -17.766  0.2540E+02  0.1037E+03
    -17.752  0.2518E+02  0.1040E+03
    -17.738  0.2494E+02  0.1044E+03
    -17.725  0.2469E+02  0.1047E+03
    -17.711  0.2442E+02  0.1051E+03
    -17.697  0.2415E+02  0.1054E+03
    -17.683  0.2386E+02  0.1057E+03
    -17.669  0.2358E+02  0.1061E+03
    -17.655  0.2330E+02  0.1064E+03
    -17.641  0.2302E+02  0.1067E+03
    -17.628  0.2275E+02  0.1070E+03
    -17.614  0.2250E+02  0.1073E+03
    -17.600  0.2226E+02  0.1076E+03
    -17.586  0.2204E+02  0.1079E+03
    -17.572  0.2184E+02  0.1082E+03
    -17.558  0.2166E+02  0.1085E+03
    -17.544  0.2150E+02  0.1088E+03
    -17.530  0.2137E+02  0.1091E+03
    -17.517  0.2125E+02  0.1094E+03
    -17.503  0.2116E+02  0.1097E+03
    -17.489  0.2109E+02  0.1100E+03
    -17.475  0.2104E+02  0.1103E+03
    -17.461  0.2100E+02  0.1106E+03
    -17.447  0.2098E+02  0.1109E+03
    -17.433  0.2097E+02  0.1112E+03
    -17.419  0.2097E+02  0.1115E+03
    -17.406  0.2097E+02  0.1118E+03
    -17.392  0.2099E+02  0.1121E+03
    -17.378  0.2101E+02  0.1123E+03
    -17.364  0.2103E+02  0.1126E+03
    -17.350  0.2106E+02  0.1129E+03
    -17.336  0.2109E+02  0.1132E+03
    -17.322  0.2113E+02  0.1135E+03
    -17.308  0.2118E+02  0.1138E+03
    -17.295  0.2124E+02  0.1141E+03
    -17.281  0.2131E+02  0.1144E+03
    -17.267  0.2139E+02  0.1147E+03
    -17.253  0.2149E+02  0.1150E+03
    -17.239  0.2160E+02  0.1153E+03
    -17.225  0.2173E+02  0.1156E+03
    -17.211  0.2188E+02  0.1159E+03
    -17.197  0.2204E+02  0.1162E+03
    -17.184  0.2223E+02  0.1165E+03
    -17.170  0.2242E+02  0.1168E+03
    -17.156  0.2264E+02  0.1171E+03
    -17.142  0.2286E+02  0.1175E+03
    -17.128  0.2309E+02  0.1178E+03
    -17.114  0.2333E+02  0.1181E+03
    -17.100  0.2357E+02  0.1184E+03
    -17.086  0.2381E+02  0.1188E+03
    -17.073  0.2404E+02  0.1191E+03
    -17.059  0.2427E+02  0.1194E+03
    -17.045  0.2448E+02  0.1198E+03
    -17.031  0.2468E+02  0.1201E+03
    -17.017  0.2485E+02  0.1205E+03
    -17.003  0.2500E+02  0.1208E+03
    -16.989  0.2513E+02  0.1212E+03
    -16.976  0.2523E+02  0.1215E+03
    -16.962  0.2530E+02  0.1219E+03
    -16.948  0.2535E+02  0.1222E+03
    -16.934  0.2536E+02  0.1226E+03
    -16.920  0.2535E+02  0.1229E+03
    -16.906  0.2532E+02  0.1233E+03
    -16.892  0.2527E+02  0.1236E+03
    -16.878  0.2519E+02  0.1240E+03
    -16.865  0.2510E+02  0.1243E+03
    -16.851  0.2500E+02  0.1247E+03
    -16.837  0.2490E+02  0.1250E+03
    -16.823  0.2479E+02  0.1253E+03
    -16.809  0.2469E+02  0.1257E+03
    -16.795  0.2459E+02  0.1260E+03
    -16.781  0.2450E+02  0.1264E+03
    -16.767  0.2442E+02  0.1267E+03
    -16.754  0.2435E+02  0.1270E+03
    -16.740  0.2430E+02  0.1274E+03
    -16.726  0.2426E+02  0.1277E+03
    -16.712  0.2424E+02  0.1281E+03
    -16.698  0.2422E+02  0.1284E+03
    -16.684  0.2421E+02  0.1287E+03
    -16.670  0.2422E+02  0.1291E+03
    -16.656  0.2422E+02  0.1294E+03
    -16.643  0.2423E+02  0.1297E+03
    -16.629  0.2423E+02  0.1301E+03
    -16.615  0.2423E+02  0.1304E+03
    -16.601  0.2423E+02  0.1307E+03
    -16.587  0.2421E+02  0.1311E+03
    -16.573  0.2419E+02  0.1314E+03
    -16.559  0.2416E+02  0.1317E+03
    -16.545  0.2412E+02  0.1321E+03
    -16.532  0.2406E+02  0.1324E+03
    -16.518  0.2401E+02  0.1328E+03
    -16.504  0.2394E+02  0.1331E+03
    -16.490  0.2388E+02  0.1334E+03
    -16.476  0.2381E+02  0.1337E+03
    -16.462  0.2374E+02  0.1341E+03
    -16.448  0.2367E+02  0.1344E+03
    -16.434  0.2361E+02  0.1347E+03
    -16.421  0.2355E+02  0.1351E+03
    -16.407  0.2350E+02  0.1354E+03
    -16.393  0.2345E+02  0.1357E+03
    -16.379  0.2342E+02  0.1360E+03
    -16.365  0.2339E+02  0.1364E+03
    -16.351  0.2338E+02  0.1367E+03
    -16.337  0.2337E+02  0.1370E+03
    -16.324  0.2337E+02  0.1373E+03
    -16.310  0.2338E+02  0.1377E+03
    -16.296  0.2340E+02  0.1380E+03
    -16.282  0.2343E+02  0.1383E+03
    -16.268  0.2346E+02  0.1386E+03
    -16.254  0.2350E+02  0.1390E+03
    -16.240  0.2354E+02  0.1393E+03
    -16.226  0.2359E+02  0.1396E+03
    -16.213  0.2363E+02  0.1399E+03
    -16.199  0.2367E+02  0.1403E+03
    -16.185  0.2370E+02  0.1406E+03
    -16.171  0.2373E+02  0.1409E+03
    -16.157  0.2375E+02  0.1413E+03
    -16.143  0.2376E+02  0.1416E+03
    -16.129  0.2375E+02  0.1419E+03
    -16.115  0.2373E+02  0.1422E+03
    -16.102  0.2369E+02  0.1426E+03
    -16.088  0.2364E+02  0.1429E+03
    -16.074  0.2358E+02  0.1432E+03
    -16.060  0.2351E+02  0.1436E+03
    -16.046  0.2343E+02  0.1439E+03
    -16.032  0.2335E+02  0.1442E+03
    -16.018  0.2327E+02  0.1445E+03
    -16.004  0.2319E+02  0.1448E+03
    -15.991  0.2312E+02  0.1452E+03
    -15.977  0.2306E+02  0.1455E+03
    -15.963  0.2301E+02  0.1458E+03
    -15.949  0.2298E+02  0.1461E+03
    -15.935  0.2297E+02  0.1464E+03
    -15.921  0.2297E+02  0.1468E+03
    -15.907  0.2299E+02  0.1471E+03
    -15.893  0.2301E+02  0.1474E+03
    -15.880  0.2305E+02  0.1477E+03
    -15.866  0.2308E+02  0.1480E+03
    -15.852  0.2311E+02  0.1484E+03
    -15.838  0.2313E+02  0.1487E+03
    -15.824  0.2314E+02  0.1490E+03
    -15.810  0.2312E+02  0.1493E+03
    -15.796  0.2308E+02  0.1496E+03
    -15.782  0.2302E+02  0.1500E+03
    -15.769  0.2292E+02  0.1503E+03
    -15.755  0.2280E+02  0.1506E+03
    -15.741  0.2264E+02  0.1509E+03
    -15.727  0.2246E+02  0.1512E+03
    -15.713  0.2226E+02  0.1515E+03
    -15.699  0.2204E+02  0.1518E+03
    -15.685  0.2181E+02  0.1521E+03
    -15.672  0.2158E+02  0.1524E+03
    -15.658  0.2135E+02  0.1527E+03
    -15.644  0.2113E+02  0.1530E+03
    -15.630  0.2094E+02  0.1533E+03
    -15.616  0.2076E+02  0.1536E+03
    -15.602  0.2062E+02  0.1539E+03
    -15.588  0.2051E+02  0.1542E+03
    -15.574  0.2044E+02  0.1545E+03
    -15.561  0.2041E+02  0.1547E+03
    -15.547  0.2043E+02  0.1550E+03
    -15.533  0.2048E+02  0.1553E+03
    -15.519  0.2057E+02  0.1556E+03
    -15.505  0.2070E+02  0.1559E+03
    -15.491  0.2086E+02  0.1562E+03
    -15.477  0.2106E+02  0.1565E+03
    -15.463  0.2129E+02  0.1568E+03
    -15.450  0.2154E+02  0.1571E+03
    -15.436  0.2181E+02  0.1574E+03
    -15.422  0.2211E+02  0.1577E+03
    -15.408  0.2242E+02  0.1580E+03
    -15.394  0.2275E+02  0.1583E+03
    -15.380  0.2308E+02  0.1586E+03
    -15.366  0.2343E+02  0.1589E+03
    -15.352  0.2377E+02  0.1593E+03
    -15.339  0.2412E+02  0.1596E+03
    -15.325  0.2447E+02  0.1599E+03
    -15.311  0.2481E+02  0.1603E+03
    -15.297  0.2514E+02  0.1606E+03
    -15.283  0.2546E+02  0.1610E+03
    -15.269  0.2576E+02  0.1613E+03
    -15.255  0.2604E+02  0.1617E+03
    -15.241  0.2630E+02  0.1621E+03
    -15.228  0.2653E+02  0.1624E+03
    -15.214  0.2673E+02  0.1628E+03
    -15.200  0.2690E+02  0.1632E+03
    -15.186  0.2705E+02  0.1636E+03
    -15.172  0.2716E+02  0.1639E+03
    -15.158  0.2724E+02  0.1643E+03
    -15.144  0.2729E+02  0.1647E+03
    -15.131  0.2733E+02  0.1651E+03
    -15.117  0.2734E+02  0.1655E+03
    -15.103  0.2733E+02  0.1658E+03
    -15.089  0.2732E+02  0.1662E+03
    -15.075  0.2729E+02  0.1666E+03
    -15.061  0.2727E+02  0.1670E+03
    -15.047  0.2724E+02  0.1673E+03
    -15.033  0.2722E+02  0.1677E+03
    -15.020  0.2720E+02  0.1681E+03
    -15.006  0.2719E+02  0.1685E+03
    -14.992  0.2719E+02  0.1689E+03
    -14.978  0.2719E+02  0.1692E+03
    -14.964  0.2720E+02  0.1696E+03
    -14.950  0.2721E+02  0.1700E+03
    -14.936  0.2723E+02  0.1704E+03
    -14.922  0.2723E+02  0.1707E+03
    -14.909  0.2724E+02  0.1711E+03
    -14.895  0.2723E+02  0.1715E+03
    -14.881  0.2720E+02  0.1719E+03
    -14.867  0.2716E+02  0.1723E+03
    -14.853  0.2710E+02  0.1726E+03
    -14.839  0.2702E+02  0.1730E+03
    -14.825  0.2691E+02  0.1734E+03
    -14.811  0.2678E+02  0.1737E+03
    -14.798  0.2663E+02  0.1741E+03
    -14.784  0.2646E+02  0.1745E+03
    -14.770  0.2627E+02  0.1748E+03
    -14.756  0.2607E+02  0.1752E+03
    -14.742  0.2585E+02  0.1756E+03
    -14.728  0.2563E+02  0.1759E+03
    -14.714  0.2541E+02  0.1763E+03
    -14.700  0.2518E+02  0.1766E+03
    -14.687  0.2496E+02  0.1770E+03
    -14.673  0.2475E+02  0.1773E+03
    -14.659  0.2455E+02  0.1777E+03
    -14.645  0.2436E+02  0.1780E+03
    -14.631  0.2419E+02  0.1783E+03
    -14.617  0.2404E+02  0.1787E+03
    -14.603  0.2390E+02  0.1790E+03
    -14.589  0.2379E+02  0.1793E+03
    -14.576  0.2369E+02  0.1797E+03
    -14.562  0.2361E+02  0.1800E+03
    -14.548  0.2355E+02  0.1803E+03
    -14.534  0.2350E+02  0.1806E+03
    -14.520  0.2346E+02  0.1810E+03
    -14.506  0.2344E+02  0.1813E+03
    -14.492  0.2343E+02  0.1816E+03
    -14.479  0.2343E+02  0.1819E+03
    -14.465  0.2343E+02  0.1823E+03
    -14.451  0.2344E+02  0.1826E+03
    -14.437  0.2345E+02  0.1829E+03
    -14.423  0.2346E+02  0.1832E+03
    -14.409  0.2348E+02  0.1836E+03
    -14.395  0.2350E+02  0.1839E+03
    -14.381  0.2352E+02  0.1842E+03
    -14.368  0.2355E+02  0.1845E+03
    -14.354  0.2357E+02  0.1849E+03
    -14.340  0.2359E+02  0.1852E+03
    -14.326  0.2361E+02  0.1855E+03
    -14.312  0.2363E+02  0.1858E+03
    -14.298  0.2365E+02  0.1862E+03
    -14.284  0.2366E+02  0.1865E+03
    -14.270  0.2367E+02  0.1868E+03
    -14.257  0.2368E+02  0.1872E+03
    -14.243  0.2368E+02  0.1875E+03
    -14.229  0.2368E+02  0.1878E+03
    -14.215  0.2367E+02  0.1881E+03
    -14.201  0.2365E+02  0.1885E+03
    -14.187  0.2363E+02  0.1888E+03
    -14.173  0.2361E+02  0.1891E+03
    -14.159  0.2358E+02  0.1895E+03
    -14.146  0.2356E+02  0.1898E+03
    -14.132  0.2353E+02  0.1901E+03
    -14.118  0.2351E+02  0.1904E+03
    -14.104  0.2349E+02  0.1908E+03
    -14.090  0.2349E+02  0.1911E+03
    -14.076  0.2349E+02  0.1914E+03
    -14.062  0.2351E+02  0.1917E+03
    -14.048  0.2355E+02  0.1921E+03
    -14.035  0.2361E+02  0.1924E+03
    -14.021  0.2369E+02  0.1927E+03
    -14.007  0.2379E+02  0.1931E+03
    -13.993  0.2391E+02  0.1934E+03
    -13.979  0.2406E+02  0.1937E+03
    -13.965  0.2423E+02  0.1941E+03
    -13.951  0.2443E+02  0.1944E+03
    -13.937  0.2464E+02  0.1947E+03
    -13.924  0.2487E+02  0.1951E+03
    -13.910  0.2512E+02  0.1954E+03
    -13.896  0.2537E+02  0.1958E+03
    -13.882  0.2563E+02  0.1961E+03
    -13.868  0.2589E+02  0.1965E+03
    -13.854  0.2614E+02  0.1969E+03
    -13.840  0.2638E+02  0.1972E+03
    -13.827  0.2660E+02  0.1976E+03
    -13.813  0.2680E+02  0.1980E+03
    -13.799  0.2698E+02  0.1983E+03
    -13.785  0.2713E+02  0.1987E+03
    -13.771  0.2724E+02  0.1991E+03
    -13.757  0.2733E+02  0.1995E+03
    -13.743  0.2739E+02  0.1999E+03
    -13.729  0.2742E+02  0.2002E+03
    -13.716  0.2743E+02  0.2006E+03
    -13.702  0.2742E+02  0.2010E+03
    -13.688  0.2739E+02  0.2014E+03
    -13.674  0.2735E+02  0.2018E+03
    -13.660  0.2730E+02  0.2021E+03
    -13.646  0.2726E+02  0.2025E+03
    -13.632  0.2722E+02  0.2029E+03
    -13.618  0.2718E+02  0.2033E+03
    -13.605  0.2717E+02  0.2036E+03
    -13.591  0.2717E+02  0.2040E+03
    -13.577  0.2718E+02  0.2044E+03
    -13.563  0.2722E+02  0.2048E+03
    -13.549  0.2727E+02  0.2052E+03
    -13.535  0.2735E+02  0.2055E+03
    -13.521  0.2743E+02  0.2059E+03
    -13.507  0.2753E+02  0.2063E+03
    -13.494  0.2764E+02  0.2067E+03
    -13.480  0.2776E+02  0.2071E+03
    -13.466  0.2787E+02  0.2074E+03
    -13.452  0.2798E+02  0.2078E+03
    -13.438  0.2808E+02  0.2082E+03
    -13.424  0.2817E+02  0.2086E+03
    -13.410  0.2825E+02  0.2090E+03
    -13.396  0.2830E+02  0.2094E+03
    -13.383  0.2833E+02  0.2098E+03
    -13.369  0.2834E+02  0.2102E+03
    -13.355  0.2833E+02  0.2106E+03
    -13.341  0.2829E+02  0.2110E+03
    -13.327  0.2823E+02  0.2114E+03
    -13.313  0.2814E+02  0.2118E+03
    -13.299  0.2804E+02  0.2121E+03
    -13.285  0.2792E+02  0.2125E+03
    -13.272  0.2779E+02  0.2129E+03
    -13.258  0.2765E+02  0.2133E+03
    -13.244  0.2751E+02  0.2137E+03
    -13.230  0.2737E+02  0.2141E+03
    -13.216  0.2724E+02  0.2144E+03
    -13.202  0.2712E+02  0.2148E+03
    -13.188  0.2701E+02  0.2152E+03
    -13.175  0.2692E+02  0.2156E+03
    -13.161  0.2686E+02  0.2159E+03
    -13.147  0.2681E+02  0.2163E+03
    -13.133  0.2679E+02  0.2167E+03