 135 135   0   0
  0.5572312E+02  0.2157178E-08  0.1743626E-08  0.2000000E-08  0.5000000E-15
  1.000000000000000E-004
  CAR 
 unknown system                          
      3.47994574    -24.19668571 2000     -3.71734001      1.00000000
    -24.197  0.0000E+00  0.0000E+00
    -24.183  0.0000E+00  0.0000E+00
    -24.169  0.0000E+00  0.0000E+00
    -24.155  0.0000E+00  0.0000E+00
    -24.141  0.0000E+00  0.0000E+00
    -24.127  0.0000E+00  0.0000E+00
    -24.114  0.0000E+00  0.0000E+00
    -24.100  0.0000E+00  0.0000E+00
    -24.086  0.0000E+00  0.0000E+00
    -24.072  0.0000E+00  0.0000E+00
    -24.058  0.0000E+00  0.0000E+00
    -24.044  0.0000E+00  0.0000E+00
    -24.031  0.0000E+00  0.0000E+00
    -24.017  0.0000E+00  0.0000E+00
    -24.003  0.0000E+00  0.0000E+00
    -23.989  0.0000E+00  0.0000E+00
    -23.975  0.0000E+00  0.0000E+00
    -23.961  0.0000E+00  0.0000E+00
    -23.947  0.0000E+00  0.0000E+00
    -23.934  0.0000E+00  0.0000E+00
    -23.920  0.0000E+00  0.0000E+00
    -23.906  0.0000E+00  0.0000E+00
    -23.892  0.0000E+00  0.0000E+00
    -23.878  0.0000E+00  0.0000E+00
    -23.864  0.0000E+00  0.0000E+00
    -23.851  0.0000E+00  0.0000E+00
    -23.837  0.0000E+00  0.0000E+00
    -23.823  0.0000E+00  0.0000E+00
    -23.809  0.0000E+00  0.0000E+00
    -23.795  0.0000E+00  0.0000E+00
    -23.781  0.0000E+00  0.0000E+00
    -23.767  0.0000E+00  0.0000E+00
    -23.754  0.0000E+00  0.0000E+00
    -23.740  0.0000E+00  0.0000E+00
    -23.726  0.0000E+00  0.0000E+00
    -23.712  0.0000E+00  0.0000E+00
    -23.698  0.0000E+00  0.0000E+00
    -23.684  0.0000E+00  0.0000E+00
    -23.671  0.0000E+00  0.0000E+00
    -23.657  0.0000E+00  0.0000E+00
    -23.643  0.0000E+00  0.0000E+00
    -23.629  0.0000E+00  0.0000E+00
    -23.615  0.0000E+00  0.0000E+00
    -23.601  0.0000E+00  0.0000E+00
    -23.587  0.0000E+00  0.0000E+00
    -23.574  0.0000E+00  0.0000E+00
    -23.560  0.0000E+00  0.0000E+00
    -23.546  0.0000E+00  0.0000E+00
    -23.532  0.0000E+00  0.0000E+00
    -23.518  0.0000E+00  0.0000E+00
    -23.504  0.0000E+00  0.0000E+00
    -23.491  0.0000E+00  0.0000E+00
    -23.477  0.0000E+00  0.0000E+00
    -23.463  0.0000E+00  0.0000E+00
    -23.449  0.0000E+00  0.0000E+00
    -23.435  0.0000E+00  0.0000E+00
    -23.421  0.0000E+00  0.0000E+00
    -23.408  0.0000E+00  0.0000E+00
    -23.394  0.0000E+00  0.0000E+00
    -23.380  0.8910E-15  0.1234E-16
    -23.366  0.5346E-14  0.8635E-16
    -23.352  0.7128E-14  0.1850E-15
    -23.338  0.1693E-13  0.4194E-15
    -23.324  0.3564E-13  0.9129E-15
    -23.311  0.7662E-13  0.1974E-14
    -23.297  0.1693E-12  0.4318E-14
    -23.283  0.3680E-12  0.9412E-14
    -23.269  0.7805E-12  0.2022E-13
    -23.255  0.1653E-11  0.4310E-13
    -23.241  0.3453E-11  0.9091E-13
    -23.228  0.7167E-11  0.1901E-12
    -23.214  0.1472E-10  0.3939E-12
    -23.200  0.2995E-10  0.8086E-12
    -23.186  0.6034E-10  0.1644E-11
    -23.172  0.1204E-09  0.3311E-11
    -23.158  0.2381E-09  0.6608E-11
    -23.144  0.4663E-09  0.1306E-10
    -23.131  0.9044E-09  0.2559E-10
    -23.117  0.1738E-08  0.4964E-10
    -23.103  0.3307E-08  0.9543E-10
    -23.089  0.6234E-08  0.1817E-09
    -23.075  0.1164E-07  0.3429E-09
    -23.061  0.2153E-07  0.6410E-09
    -23.048  0.3945E-07  0.1187E-08
    -23.034  0.7159E-07  0.2178E-08
    -23.020  0.1287E-06  0.3960E-08
    -23.006  0.2292E-06  0.7133E-08
    -22.992  0.4042E-06  0.1273E-07
    -22.978  0.7063E-06  0.2251E-07
    -22.964  0.1222E-05  0.3943E-07
    -22.951  0.2096E-05  0.6845E-07
    -22.937  0.3559E-05  0.1177E-06
    -22.923  0.5987E-05  0.2006E-06
    -22.909  0.9977E-05  0.3388E-06
    -22.895  0.1647E-04  0.5668E-06
    -22.881  0.2693E-04  0.9397E-06
    -22.868  0.4363E-04  0.1544E-05
    -22.854  0.7001E-04  0.2513E-05
    -22.840  0.1113E-03  0.4054E-05
    -22.826  0.1753E-03  0.6481E-05
    -22.812  0.2734E-03  0.1027E-04
    -22.798  0.4226E-03  0.1612E-04
    -22.784  0.6470E-03  0.2508E-04
    -22.771  0.9814E-03  0.3866E-04
    -22.757  0.1475E-02  0.5908E-04
    -22.743  0.2195E-02  0.8948E-04
    -22.729  0.3238E-02  0.1343E-03
    -22.715  0.4731E-02  0.1998E-03
    -22.701  0.6849E-02  0.2946E-03
    -22.688  0.9824E-02  0.4307E-03
    -22.674  0.1396E-01  0.6240E-03
    -22.660  0.1966E-01  0.8961E-03
    -22.646  0.2742E-01  0.1276E-02
    -22.632  0.3791E-01  0.1801E-02
    -22.618  0.5192E-01  0.2519E-02
    -22.604  0.7046E-01  0.3495E-02
    -22.591  0.9476E-01  0.4807E-02
    -22.577  0.1263E+00  0.6555E-02
    -22.563  0.1668E+00  0.8864E-02
    -22.549  0.2182E+00  0.1189E-01
    -22.535  0.2831E+00  0.1580E-01
    -22.521  0.3638E+00  0.2084E-01
    -22.508  0.4635E+00  0.2726E-01
    -22.494  0.5852E+00  0.3536E-01
    -22.480  0.7324E+00  0.4550E-01
    -22.466  0.9086E+00  0.5808E-01
    -22.452  0.1117E+01  0.7355E-01
    -22.438  0.1362E+01  0.9241E-01
    -22.424  0.1646E+01  0.1152E+00
    -22.411  0.1973E+01  0.1425E+00
    -22.397  0.2344E+01  0.1750E+00
    -22.383  0.2762E+01  0.2132E+00
    -22.369  0.3227E+01  0.2579E+00
    -22.355  0.3739E+01  0.3096E+00
    -22.341  0.4297E+01  0.3691E+00
    -22.328  0.4899E+01  0.4370E+00
    -22.314  0.5542E+01  0.5137E+00
    -22.300  0.6219E+01  0.5998E+00
    -22.286  0.6926E+01  0.6957E+00
    -22.272  0.7655E+01  0.8017E+00
    -22.258  0.8398E+01  0.9180E+00
    -22.245  0.9148E+01  0.1045E+01
    -22.231  0.9894E+01  0.1182E+01
    -22.217  0.1063E+02  0.1329E+01
    -22.203  0.1134E+02  0.1486E+01
    -22.189  0.1202E+02  0.1652E+01
    -22.175  0.1267E+02  0.1828E+01
    -22.161  0.1327E+02  0.2011E+01
    -22.148  0.1383E+02  0.2203E+01
    -22.134  0.1433E+02  0.2401E+01
    -22.120  0.1477E+02  0.2606E+01
    -22.106  0.1516E+02  0.2816E+01
    -22.092  0.1549E+02  0.3030E+01
    -22.078  0.1578E+02  0.3248E+01
    -22.065  0.1601E+02  0.3470E+01
    -22.051  0.1619E+02  0.3694E+01
    -22.037  0.1634E+02  0.3921E+01
    -22.023  0.1645E+02  0.4148E+01
    -22.009  0.1654E+02  0.4377E+01
    -21.995  0.1661E+02  0.4607E+01
    -21.981  0.1666E+02  0.4838E+01
    -21.968  0.1671E+02  0.5069E+01
    -21.954  0.1675E+02  0.5301E+01
    -21.940  0.1680E+02  0.5534E+01
    -21.926  0.1685E+02  0.5767E+01
    -21.912  0.1692E+02  0.6001E+01
    -21.898  0.1700E+02  0.6237E+01
    -21.885  0.1710E+02  0.6474E+01
    -21.871  0.1720E+02  0.6712E+01
    -21.857  0.1733E+02  0.6952E+01
    -21.843  0.1746E+02  0.7193E+01
    -21.829  0.1761E+02  0.7437E+01
    -21.815  0.1776E+02  0.7683E+01
    -21.801  0.1791E+02  0.7931E+01
    -21.788  0.1806E+02  0.8181E+01
    -21.774  0.1821E+02  0.8433E+01
    -21.760  0.1835E+02  0.8687E+01
    -21.746  0.1847E+02  0.8943E+01
    -21.732  0.1857E+02  0.9200E+01
    -21.718  0.1866E+02  0.9458E+01
    -21.705  0.1871E+02  0.9718E+01
    -21.691  0.1875E+02  0.9977E+01
    -21.677  0.1875E+02  0.1024E+02
    -21.663  0.1873E+02  0.1050E+02
    -21.649  0.1867E+02  0.1075E+02
    -21.635  0.1860E+02  0.1101E+02
    -21.621  0.1850E+02  0.1127E+02
    -21.608  0.1838E+02  0.1152E+02
    -21.594  0.1824E+02  0.1178E+02
    -21.580  0.1810E+02  0.1203E+02
    -21.566  0.1794E+02  0.1227E+02
    -21.552  0.1779E+02  0.1252E+02
    -21.538  0.1764E+02  0.1276E+02
    -21.525  0.1749E+02  0.1301E+02
    -21.511  0.1736E+02  0.1325E+02
    -21.497  0.1725E+02  0.1349E+02
    -21.483  0.1716E+02  0.1372E+02
    -21.469  0.1709E+02  0.1396E+02
    -21.455  0.1705E+02  0.1420E+02
    -21.441  0.1704E+02  0.1443E+02
    -21.428  0.1705E+02  0.1467E+02
    -21.414  0.1709E+02  0.1490E+02
    -21.400  0.1717E+02  0.1514E+02
    -21.386  0.1727E+02  0.1538E+02
    -21.372  0.1739E+02  0.1562E+02
    -21.358  0.1754E+02  0.1587E+02
    -21.345  0.1771E+02  0.1611E+02
    -21.331  0.1790E+02  0.1636E+02
    -21.317  0.1810E+02  0.1661E+02
    -21.303  0.1832E+02  0.1686E+02
    -21.289  0.1855E+02  0.1712E+02
    -21.275  0.1879E+02  0.1738E+02
    -21.261  0.1903E+02  0.1764E+02
    -21.248  0.1927E+02  0.1791E+02
    -21.234  0.1951E+02  0.1818E+02
    -21.220  0.1975E+02  0.1845E+02
    -21.206  0.1998E+02  0.1873E+02
    -21.192  0.2020E+02  0.1901E+02
    -21.178  0.2041E+02  0.1929E+02
    -21.165  0.2060E+02  0.1958E+02
    -21.151  0.2078E+02  0.1986E+02
    -21.137  0.2094E+02  0.2015E+02
    -21.123  0.2107E+02  0.2045E+02
    -21.109  0.2119E+02  0.2074E+02
    -21.095  0.2129E+02  0.2103E+02
    -21.082  0.2136E+02  0.2133E+02
    -21.068  0.2141E+02  0.2163E+02
    -21.054  0.2144E+02  0.2192E+02
    -21.040  0.2146E+02  0.2222E+02
    -21.026  0.2145E+02  0.2252E+02
    -21.012  0.2144E+02  0.2281E+02
    -20.998  0.2141E+02  0.2311E+02
    -20.985  0.2138E+02  0.2341E+02
    -20.971  0.2135E+02  0.2370E+02
    -20.957  0.2131E+02  0.2400E+02
    -20.943  0.2129E+02  0.2429E+02
    -20.929  0.2127E+02  0.2459E+02
    -20.915  0.2126E+02  0.2488E+02
    -20.902  0.2127E+02  0.2518E+02
    -20.888  0.2129E+02  0.2547E+02
    -20.874  0.2133E+02  0.2577E+02
    -20.860  0.2139E+02  0.2606E+02
    -20.846  0.2147E+02  0.2636E+02
    -20.832  0.2157E+02  0.2666E+02
    -20.818  0.2168E+02  0.2696E+02
    -20.805  0.2180E+02  0.2726E+02
    -20.791  0.2193E+02  0.2756E+02
    -20.777  0.2206E+02  0.2787E+02
    -20.763  0.2220E+02  0.2818E+02
    -20.749  0.2233E+02  0.2849E+02
    -20.735  0.2246E+02  0.2880E+02
    -20.722  0.2257E+02  0.2911E+02
    -20.708  0.2267E+02  0.2942E+02
    -20.694  0.2275E+02  0.2974E+02
    -20.680  0.2281E+02  0.3005E+02
    -20.666  0.2284E+02  0.3037E+02
    -20.652  0.2286E+02  0.3069E+02
    -20.638  0.2285E+02  0.3100E+02
    -20.625  0.2282E+02  0.3132E+02
    -20.611  0.2276E+02  0.3163E+02
    -20.597  0.2269E+02  0.3195E+02
    -20.583  0.2260E+02  0.3226E+02
    -20.569  0.2251E+02  0.3257E+02
    -20.555  0.2240E+02  0.3288E+02
    -20.542  0.2228E+02  0.3319E+02
    -20.528  0.2217E+02  0.3350E+02
    -20.514  0.2206E+02  0.3380E+02
    -20.500  0.2195E+02  0.3411E+02
    -20.486  0.2185E+02  0.3441E+02
    -20.472  0.2177E+02  0.3471E+02
    -20.458  0.2169E+02  0.3501E+02
    -20.445  0.2163E+02  0.3531E+02
    -20.431  0.2159E+02  0.3561E+02
    -20.417  0.2157E+02  0.3591E+02
    -20.403  0.2156E+02  0.3621E+02
    -20.389  0.2157E+02  0.3651E+02
    -20.375  0.2159E+02  0.3680E+02
    -20.362  0.2163E+02  0.3710E+02
    -20.348  0.2169E+02  0.3740E+02
    -20.334  0.2175E+02  0.3771E+02
    -20.320  0.2182E+02  0.3801E+02
    -20.306  0.2189E+02  0.3831E+02
    -20.292  0.2197E+02  0.3861E+02
    -20.278  0.2205E+02  0.3892E+02
    -20.265  0.2212E+02  0.3923E+02
    -20.251  0.2219E+02  0.3953E+02
    -20.237  0.2224E+02  0.3984E+02
    -20.223  0.2229E+02  0.4015E+02
    -20.209  0.2232E+02  0.4046E+02
    -20.195  0.2234E+02  0.4077E+02
    -20.182  0.2234E+02  0.4108E+02
    -20.168  0.2233E+02  0.4139E+02
    -20.154  0.2230E+02  0.4170E+02
    -20.140  0.2226E+02  0.4200E+02
    -20.126  0.2220E+02  0.4231E+02
    -20.112  0.2213E+02  0.4262E+02
    -20.098  0.2206E+02  0.4292E+02
    -20.085  0.2198E+02  0.4323E+02
    -20.071  0.2190E+02  0.4353E+02
    -20.057  0.2182E+02  0.4383E+02
    -20.043  0.2174E+02  0.4413E+02
    -20.029  0.2167E+02  0.4443E+02
    -20.015  0.2160E+02  0.4473E+02
    -20.002  0.2155E+02  0.4503E+02
    -19.988  0.2151E+02  0.4533E+02
    -19.974  0.2147E+02  0.4563E+02
    -19.960  0.2145E+02  0.4592E+02
    -19.946  0.2144E+02  0.4622E+02
    -19.932  0.2143E+02  0.4652E+02
    -19.919  0.2144E+02  0.4681E+02
    -19.905  0.2146E+02  0.4711E+02
    -19.891  0.2148E+02  0.4741E+02
    -19.877  0.2151E+02  0.4771E+02
    -19.863  0.2154E+02  0.4800E+02
    -19.849  0.2158E+02  0.4830E+02
    -19.835  0.2162E+02  0.4860E+02
    -19.822  0.2166E+02  0.4890E+02
    -19.808  0.2171E+02  0.4920E+02
    -19.794  0.2176E+02  0.4950E+02
    -19.780  0.2181E+02  0.4981E+02
    -19.766  0.2186E+02  0.5011E+02
    -19.752  0.2191E+02  0.5041E+02
    -19.739  0.2196E+02  0.5072E+02
    -19.725  0.2202E+02  0.5102E+02
    -19.711  0.2207E+02  0.5133E+02
    -19.697  0.2212E+02  0.5163E+02
    -19.683  0.2217E+02  0.5194E+02
    -19.669  0.2222E+02  0.5225E+02
    -19.655  0.2227E+02  0.5256E+02
    -19.642  0.2231E+02  0.5286E+02
    -19.628  0.2235E+02  0.5317E+02
    -19.614  0.2240E+02  0.5348E+02
    -19.600  0.2244E+02  0.5379E+02
    -19.586  0.2248E+02  0.5411E+02
    -19.572  0.2251E+02  0.5442E+02
    -19.559  0.2255E+02  0.5473E+02
    -19.545  0.2259E+02  0.5504E+02
    -19.531  0.2263E+02  0.5536E+02
    -19.517  0.2267E+02  0.5567E+02
    -19.503  0.2271E+02  0.5598E+02
    -19.489  0.2275E+02  0.5630E+02
    -19.475  0.2279E+02  0.5661E+02
    -19.462  0.2282E+02  0.5693E+02
    -19.448  0.2285E+02  0.5725E+02
    -19.434  0.2286E+02  0.5756E+02
    -19.420  0.2287E+02  0.5788E+02
    -19.406  0.2286E+02  0.5820E+02
    -19.392  0.2283E+02  0.5851E+02
    -19.379  0.2279E+02  0.5883E+02
    -19.365  0.2272E+02  0.5914E+02
    -19.351  0.2264E+02  0.5946E+02
    -19.337  0.2253E+02  0.5977E+02
    -19.323  0.2239E+02  0.6008E+02
    -19.309  0.2223E+02  0.6039E+02
    -19.295  0.2205E+02  0.6069E+02
    -19.282  0.2184E+02  0.6099E+02
    -19.268  0.2162E+02  0.6129E+02
    -19.254  0.2137E+02  0.6159E+02
    -19.240  0.2112E+02  0.6188E+02
    -19.226  0.2085E+02  0.6217E+02
    -19.212  0.2057E+02  0.6245E+02
    -19.199  0.2030E+02  0.6274E+02
    -19.185  0.2002E+02  0.6301E+02
    -19.171  0.1975E+02  0.6329E+02
    -19.157  0.1950E+02  0.6356E+02
    -19.143  0.1926E+02  0.6382E+02
    -19.129  0.1905E+02  0.6409E+02
    -19.115  0.1887E+02  0.6435E+02
    -19.102  0.1872E+02  0.6461E+02
    -19.088  0.1860E+02  0.6486E+02
    -19.074  0.1853E+02  0.6512E+02
    -19.060  0.1851E+02  0.6538E+02
    -19.046  0.1852E+02  0.6563E+02
    -19.032  0.1859E+02  0.6589E+02
    -19.019  0.1870E+02  0.6615E+02
    -19.005  0.1886E+02  0.6641E+02
    -18.991  0.1906E+02  0.6668E+02
    -18.977  0.1930E+02  0.6694E+02
    -18.963  0.1957E+02  0.6721E+02
    -18.949  0.1987E+02  0.6749E+02
    -18.935  0.2020E+02  0.6777E+02
    -18.922  0.2055E+02  0.6805E+02
    -18.908  0.2090E+02  0.6834E+02
    -18.894  0.2126E+02  0.6864E+02
    -18.880  0.2162E+02  0.6894E+02
    -18.866  0.2197E+02  0.6924E+02
    -18.852  0.2231E+02  0.6955E+02
    -18.839  0.2262E+02  0.6986E+02
    -18.825  0.2292E+02  0.7018E+02
    -18.811  0.2318E+02  0.7050E+02
    -18.797  0.2341E+02  0.7082E+02
    -18.783  0.2362E+02  0.7115E+02
    -18.769  0.2379E+02  0.7148E+02
    -18.756  0.2393E+02  0.7181E+02
    -18.742  0.2403E+02  0.7214E+02
    -18.728  0.2411E+02  0.7248E+02
    -18.714  0.2416E+02  0.7281E+02
    -18.700  0.2419E+02  0.7315E+02
    -18.686  0.2420E+02  0.7348E+02
    -18.672  0.2419E+02  0.7382E+02
    -18.659  0.2416E+02  0.7415E+02
    -18.645  0.2413E+02  0.7449E+02
    -18.631  0.2409E+02  0.7482E+02
    -18.617  0.2405E+02  0.7515E+02
    -18.603  0.2402E+02  0.7549E+02
    -18.589  0.2398E+02  0.7582E+02
    -18.576  0.2396E+02  0.7615E+02
    -18.562  0.2395E+02  0.7648E+02
    -18.548  0.2395E+02  0.7681E+02
    -18.534  0.2397E+02  0.7714E+02
    -18.520  0.2400E+02  0.7748E+02
    -18.506  0.2405E+02  0.7781E+02
    -18.492  0.2412E+02  0.7814E+02
    -18.479  0.2420E+02  0.7848E+02
    -18.465  0.2430E+02  0.7882E+02
    -18.451  0.2442E+02  0.7915E+02
    -18.437  0.2454E+02  0.7949E+02
    -18.423  0.2468E+02  0.7983E+02
    -18.409  0.2483E+02  0.8018E+02
    -18.396  0.2498E+02  0.8052E+02
    -18.382  0.2514E+02  0.8087E+02
    -18.368  0.2530E+02  0.8122E+02
    -18.354  0.2546E+02  0.8158E+02
    -18.340  0.2562E+02  0.8193E+02
    -18.326  0.2578E+02  0.8229E+02
    -18.312  0.2593E+02  0.8265E+02
    -18.299  0.2608E+02  0.8301E+02
    -18.285  0.2622E+02  0.8337E+02
    -18.271  0.2635E+02  0.8374E+02
    -18.257  0.2647E+02  0.8410E+02
    -18.243  0.2658E+02  0.8447E+02
    -18.229  0.2668E+02  0.8484E+02
    -18.216  0.2677E+02  0.8521E+02
    -18.202  0.2685E+02  0.8558E+02
    -18.188  0.2693E+02  0.8595E+02
    -18.174  0.2699E+02  0.8633E+02
    -18.160  0.2705E+02  0.8670E+02
    -18.146  0.2710E+02  0.8708E+02
    -18.132  0.2715E+02  0.8745E+02
    -18.119  0.2719E+02  0.8783E+02
    -18.105  0.2722E+02  0.8821E+02
    -18.091  0.2726E+02  0.8858E+02
    -18.077  0.2729E+02  0.8896E+02
    -18.063  0.2732E+02  0.8934E+02
    -18.049  0.2736E+02  0.8972E+02
    -18.036  0.2739E+02  0.9010E+02
    -18.022  0.2742E+02  0.9048E+02
    -18.008  0.2745E+02  0.9086E+02
    -17.994  0.2748E+02  0.9124E+02
    -17.980  0.2751E+02  0.9162E+02
    -17.966  0.2754E+02  0.9200E+02
    -17.952  0.2756E+02  0.9238E+02
    -17.939  0.2758E+02  0.9276E+02
    -17.925  0.2759E+02  0.9315E+02
    -17.911  0.2758E+02  0.9353E+02
    -17.897  0.2756E+02  0.9391E+02
    -17.883  0.2752E+02  0.9429E+02
    -17.869  0.2746E+02  0.9467E+02
    -17.856  0.2738E+02  0.9505E+02
    -17.842  0.2727E+02  0.9543E+02
    -17.828  0.2713E+02  0.9580E+02
    -17.814  0.2697E+02  0.9618E+02
    -17.800  0.2678E+02  0.9655E+02
    -17.786  0.2656E+02  0.9692E+02
    -17.772  0.2632E+02  0.9728E+02
    -17.759  0.2605E+02  0.9764E+02
    -17.745  0.2576E+02  0.9800E+02
    -17.731  0.2546E+02  0.9835E+02
    -17.717  0.2514E+02  0.9870E+02
    -17.703  0.2482E+02  0.9904E+02
    -17.689  0.2450E+02  0.9938E+02
    -17.676  0.2418E+02  0.9972E+02
    -17.662  0.2388E+02  0.1000E+03
    -17.648  0.2360E+02  0.1004E+03
    -17.634  0.2334E+02  0.1007E+03
    -17.620  0.2311E+02  0.1010E+03
    -17.606  0.2291E+02  0.1013E+03
    -17.593  0.2274E+02  0.1016E+03
    -17.579  0.2261E+02  0.1020E+03
    -17.565  0.2251E+02  0.1023E+03
    -17.551  0.2245E+02  0.1026E+03
    -17.537  0.2242E+02  0.1029E+03
    -17.523  0.2241E+02  0.1032E+03
    -17.509  0.2243E+02  0.1035E+03
    -17.496  0.2247E+02  0.1038E+03
    -17.482  0.2252E+02  0.1041E+03
    -17.468  0.2257E+02  0.1044E+03
    -17.454  0.2263E+02  0.1048E+03
    -17.440  0.2267E+02  0.1051E+03
    -17.426  0.2270E+02  0.1054E+03
    -17.413  0.2272E+02  0.1057E+03
    -17.399  0.2272E+02  0.1060E+03
    -17.385  0.2269E+02  0.1063E+03
    -17.371  0.2264E+02  0.1066E+03
    -17.357  0.2256E+02  0.1070E+03
    -17.343  0.2246E+02  0.1073E+03
    -17.329  0.2234E+02  0.1076E+03
    -17.316  0.2221E+02  0.1079E+03
    -17.302  0.2206E+02  0.1082E+03
    -17.288  0.2190E+02  0.1085E+03
    -17.274  0.2174E+02  0.1088E+03
    -17.260  0.2158E+02  0.1091E+03
    -17.246  0.2142E+02  0.1094E+03
    -17.233  0.2128E+02  0.1097E+03
    -17.219  0.2115E+02  0.1100E+03
    -17.205  0.2104E+02  0.1103E+03
    -17.191  0.2094E+02  0.1106E+03
    -17.177  0.2087E+02  0.1109E+03
    -17.163  0.2081E+02  0.1111E+03
    -17.149  0.2077E+02  0.1114E+03
    -17.136  0.2074E+02  0.1117E+03
    -17.122  0.2072E+02  0.1120E+03
    -17.108  0.2071E+02  0.1123E+03
    -17.094  0.2070E+02  0.1126E+03
    -17.080  0.2068E+02  0.1129E+03
    -17.066  0.2066E+02  0.1131E+03
    -17.053  0.2063E+02  0.1134E+03
    -17.039  0.2058E+02  0.1137E+03
    -17.025  0.2051E+02  0.1140E+03
    -17.011  0.2041E+02  0.1143E+03
    -16.997  0.2029E+02  0.1146E+03
    -16.983  0.2015E+02  0.1148E+03
    -16.969  0.1997E+02  0.1151E+03
    -16.956  0.1978E+02  0.1154E+03
    -16.942  0.1955E+02  0.1157E+03
    -16.928  0.1930E+02  0.1159E+03
    -16.914  0.1904E+02  0.1162E+03
    -16.900  0.1875E+02  0.1165E+03
    -16.886  0.1845E+02  0.1167E+03
    -16.873  0.1814E+02  0.1170E+03
    -16.859  0.1783E+02  0.1172E+03
    -16.845  0.1752E+02  0.1175E+03
    -16.831  0.1721E+02  0.1177E+03
    -16.817  0.1691E+02  0.1179E+03
    -16.803  0.1663E+02  0.1182E+03
    -16.789  0.1636E+02  0.1184E+03
    -16.776  0.1612E+02  0.1186E+03
    -16.762  0.1590E+02  0.1188E+03
    -16.748  0.1571E+02  0.1190E+03
    -16.734  0.1555E+02  0.1193E+03
    -16.720  0.1543E+02  0.1195E+03
    -16.706  0.1534E+02  0.1197E+03
    -16.693  0.1527E+02  0.1199E+03
    -16.679  0.1524E+02  0.1201E+03
    -16.665  0.1524E+02  0.1203E+03
    -16.651  0.1527E+02  0.1205E+03
    -16.637  0.1532E+02  0.1207E+03
    -16.623  0.1538E+02  0.1210E+03
    -16.609  0.1547E+02  0.1212E+03
    -16.596  0.1557E+02  0.1214E+03
    -16.582  0.1568E+02  0.1216E+03
    -16.568  0.1580E+02  0.1218E+03
    -16.554  0.1593E+02  0.1220E+03
    -16.540  0.1606E+02  0.1223E+03
    -16.526  0.1620E+02  0.1225E+03
    -16.513  0.1635E+02  0.1227E+03
    -16.499  0.1650E+02  0.1229E+03
    -16.485  0.1667E+02  0.1232E+03
    -16.471  0.1685E+02  0.1234E+03
    -16.457  0.1703E+02  0.1236E+03
    -16.443  0.1723E+02  0.1239E+03
    -16.430  0.1745E+02  0.1241E+03
    -16.416  0.1768E+02  0.1244E+03
    -16.402  0.1793E+02  0.1246E+03
    -16.388  0.1819E+02  0.1249E+03
    -16.374  0.1846E+02  0.1251E+03
    -16.360  0.1874E+02  0.1254E+03
    -16.346  0.1903E+02  0.1256E+03
    -16.333  0.1932E+02  0.1259E+03
    -16.319  0.1961E+02  0.1262E+03
    -16.305  0.1990E+02  0.1265E+03
    -16.291  0.2018E+02  0.1267E+03
    -16.277  0.2044E+02  0.1270E+03
    -16.263  0.2068E+02  0.1273E+03
    -16.250  0.2090E+02  0.1276E+03
    -16.236  0.2110E+02  0.1279E+03
    -16.222  0.2127E+02  0.1282E+03
    -16.208  0.2141E+02  0.1285E+03
    -16.194  0.2151E+02  0.1288E+03
    -16.180  0.2159E+02  0.1291E+03
    -16.166  0.2164E+02  0.1294E+03
    -16.153  0.2165E+02  0.1297E+03
    -16.139  0.2164E+02  0.1300E+03
    -16.125  0.2160E+02  0.1303E+03
    -16.111  0.2154E+02  0.1306E+03
    -16.097  0.2146E+02  0.1309E+03
    -16.083  0.2137E+02  0.1312E+03
    -16.070  0.2126E+02  0.1315E+03
    -16.056  0.2115E+02  0.1318E+03
    -16.042  0.2103E+02  0.1320E+03
    -16.028  0.2092E+02  0.1323E+03
    -16.014  0.2081E+02  0.1326E+03
    -16.000  0.2071E+02  0.1329E+03
    -15.986  0.2062E+02  0.1332E+03
    -15.973  0.2055E+02  0.1335E+03
    -15.959  0.2050E+02  0.1338E+03
    -15.945  0.2047E+02  0.1340E+03
    -15.931  0.2047E+02  0.1343E+03
    -15.917  0.2048E+02  0.1346E+03
    -15.903  0.2053E+02  0.1349E+03
    -15.890  0.2059E+02  0.1352E+03
    -15.876  0.2068E+02  0.1355E+03
    -15.862  0.2080E+02  0.1358E+03
    -15.848  0.2094E+02  0.1360E+03
    -15.834  0.2109E+02  0.1363E+03
    -15.820  0.2127E+02  0.1366E+03
    -15.806  0.2146E+02  0.1369E+03
    -15.793  0.2167E+02  0.1372E+03
    -15.779  0.2188E+02  0.1375E+03
    -15.765  0.2210E+02  0.1378E+03
    -15.751  0.2233E+02  0.1381E+03
    -15.737  0.2255E+02  0.1385E+03
    -15.723  0.2278E+02  0.1388E+03
    -15.710  0.2300E+02  0.1391E+03
    -15.696  0.2321E+02  0.1394E+03
    -15.682  0.2342E+02  0.1397E+03
    -15.668  0.2361E+02  0.1401E+03
    -15.654  0.2379E+02  0.1404E+03
    -15.640  0.2395E+02  0.1407E+03
    -15.626  0.2410E+02  0.1411E+03
    -15.613  0.2423E+02  0.1414E+03
    -15.599  0.2434E+02  0.1417E+03
    -15.585  0.2443E+02  0.1421E+03
    -15.571  0.2451E+02  0.1424E+03
    -15.557  0.2457E+02  0.1428E+03
    -15.543  0.2462E+02  0.1431E+03
    -15.530  0.2465E+02  0.1434E+03
    -15.516  0.2466E+02  0.1438E+03
    -15.502  0.2467E+02  0.1441E+03
    -15.488  0.2467E+02  0.1445E+03
    -15.474  0.2466E+02  0.1448E+03
    -15.460  0.2465E+02  0.1451E+03
    -15.446  0.2464E+02  0.1455E+03
    -15.433  0.2462E+02  0.1458E+03
    -15.419  0.2461E+02  0.1462E+03
    -15.405  0.2461E+02  0.1465E+03
    -15.391  0.2461E+02  0.1468E+03
    -15.377  0.2462E+02  0.1472E+03
    -15.363  0.2464E+02  0.1475E+03
    -15.350  0.2468E+02  0.1479E+03
    -15.336  0.2472E+02  0.1482E+03
    -15.322  0.2478E+02  0.1486E+03
    -15.308  0.2486E+02  0.1489E+03
    -15.294  0.2494E+02  0.1492E+03
    -15.280  0.2504E+02  0.1496E+03
    -15.267  0.2515E+02  0.1499E+03
    -15.253  0.2527E+02  0.1503E+03
    -15.239  0.2539E+02  0.1506E+03
    -15.225  0.2552E+02  0.1510E+03
    -15.211  0.2566E+02  0.1513E+03
    -15.197  0.2579E+02  0.1517E+03
    -15.183  0.2591E+02  0.1521E+03
    -15.170  0.2602E+02  0.1524E+03
    -15.156  0.2612E+02  0.1528E+03
    -15.142  0.2620E+02  0.1531E+03
    -15.128  0.2626E+02  0.1535E+03
    -15.114  0.2629E+02  0.1539E+03
    -15.100  0.2628E+02  0.1542E+03
    -15.087  0.2624E+02  0.1546E+03
    -15.073  0.2617E+02  0.1550E+03
    -15.059  0.2605E+02  0.1553E+03
    -15.045  0.2589E+02  0.1557E+03
    -15.031  0.2568E+02  0.1560E+03
    -15.017  0.2545E+02  0.1564E+03
    -15.003  0.2517E+02  0.1567E+03
    -14.990  0.2487E+02  0.1571E+03
    -14.976  0.2453E+02  0.1574E+03
    -14.962  0.2419E+02  0.1578E+03
    -14.948  0.2383E+02  0.1581E+03
    -14.934  0.2346E+02  0.1584E+03
    -14.920  0.2311E+02  0.1587E+03
    -14.907  0.2277E+02  0.1590E+03
    -14.893  0.2245E+02  0.1594E+03
    -14.879  0.2216E+02  0.1597E+03
    -14.865  0.2190E+02  0.1600E+03
    -14.851  0.2169E+02  0.1603E+03
    -14.837  0.2152E+02  0.1606E+03
    -14.823  0.2140E+02  0.1609E+03
    -14.810  0.2132E+02  0.1612E+03
    -14.796  0.2128E+02  0.1615E+03
    -14.782  0.2129E+02  0.1617E+03
    -14.768  0.2133E+02  0.1620E+03
    -14.754  0.2141E+02  0.1623E+03
    -14.740  0.2151E+02  0.1626E+03
    -14.727  0.2164E+02  0.1629E+03
    -14.713  0.2178E+02  0.1632E+03
    -14.699  0.2192E+02  0.1635E+03
    -14.685  0.2207E+02  0.1638E+03
    -14.671  0.2222E+02  0.1642E+03
    -14.657  0.2237E+02  0.1645E+03
    -14.643  0.2250E+02  0.1648E+03
    -14.630  0.2262E+02  0.1651E+03
    -14.616  0.2273E+02  0.1654E+03
    -14.602  0.2284E+02  0.1657E+03
    -14.588  0.2293E+02  0.1660E+03
    -14.574  0.2301E+02  0.1664E+03
    -14.560  0.2308E+02  0.1667E+03
    -14.547  0.2316E+02  0.1670E+03
    -14.533  0.2323E+02  0.1673E+03
    -14.519  0.2330E+02  0.1676E+03
    -14.505  0.2338E+02  0.1680E+03
    -14.491  0.2347E+02  0.1683E+03
    -14.477  0.2357E+02  0.1686E+03
    -14.463  0.2369E+02  0.1689E+03
    -14.450  0.2382E+02  0.1693E+03
    -14.436  0.2396E+02  0.1696E+03
    -14.422  0.2412E+02  0.1699E+03
    -14.408  0.2430E+02  0.1703E+03
    -14.394  0.2449E+02  0.1706E+03
    -14.380  0.2470E+02  0.1710E+03
    -14.367  0.2492E+02  0.1713E+03
    -14.353  0.2515E+02  0.1717E+03
    -14.339  0.2539E+02  0.1720E+03
    -14.325  0.2563E+02  0.1724E+03
    -14.311  0.2588E+02  0.1727E+03
    -14.297  0.2612E+02  0.1731E+03
    -14.283  0.2635E+02  0.1734E+03
    -14.270  0.2657E+02  0.1738E+03
    -14.256  0.2678E+02  0.1742E+03
    -14.242  0.2696E+02  0.1746E+03
    -14.228  0.2711E+02  0.1749E+03
    -14.214  0.2722E+02  0.1753E+03
    -14.200  0.2730E+02  0.1757E+03
    -14.187  0.2733E+02  0.1761E+03
    -14.173  0.2731E+02  0.1764E+03
    -14.159  0.2725E+02  0.1768E+03
    -14.145  0.2713E+02  0.1772E+03
    -14.131  0.2696E+02  0.1776E+03
    -14.117  0.2674E+02  0.1779E+03
    -14.104  0.2647E+02  0.1783E+03
    -14.090  0.2615E+02  0.1787E+03
    -14.076  0.2580E+02  0.1790E+03
    -14.062  0.2540E+02  0.1794E+03
    -14.048  0.2498E+02  0.1797E+03
    -14.034  0.2454E+02  0.1801E+03
    -14.020  0.2409E+02  0.1804E+03
    -14.007  0.2362E+02  0.1807E+03
    -13.993  0.2316E+02  0.1810E+03
    -13.979  0.2271E+02  0.1814E+03
    -13.965  0.2227E+02  0.1817E+03
    -13.951  0.2185E+02  0.1820E+03
    -13.937  0.2146E+02  0.1823E+03
    -13.924  0.2109E+02  0.1826E+03
    -13.910  0.2076E+02  0.1828E+03
    -13.896  0.2046E+02  0.1831E+03
    -13.882  0.2019E+02  0.1834E+03
    -13.868  0.1996E+02  0.1837E+03
    -13.854  0.1975E+02  0.1840E+03
    -13.840  0.1958E+02  0.1842E+03
    -13.827  0.1943E+02  0.1845E+03
    -13.813  0.1932E+02  0.1848E+03
    -13.799  0.1922E+02  0.1850E+03
    -13.785  0.1915E+02  0.1853E+03
    -13.771  0.1909E+02  0.1856E+03
    -13.757  0.1906E+02  0.1858E+03
    -13.744  0.1904E+02  0.1861E+03
    -13.730  0.1903E+02  0.1864E+03
    -13.716  0.1904E+02  0.1866E+03
    -13.702  0.1906E+02  0.1869E+03
    -13.688  0.1910E+02  0.1871E+03
    -13.674  0.1915E+02  0.1874E+03
    -13.660  0.1921E+02  0.1877E+03
    -13.647  0.1929E+02  0.1879E+03
    -13.633  0.1938E+02  0.1882E+03
    -13.619  0.1948E+02  0.1885E+03
    -13.605  0.1961E+02  0.1888E+03
    -13.591  0.1974E+02  0.1890E+03
    -13.577  0.1989E+02  0.1893E+03
    -13.564  0.2005E+02  0.1896E+03
    -13.550  0.2022E+02  0.1899E+03
    -13.536  0.2040E+02  0.1901E+03
    -13.522  0.2058E+02  0.1904E+03
    -13.508  0.2077E+02  0.1907E+03
    -13.494  0.2096E+02  0.1910E+03
    -13.480  0.2114E+02  0.1913E+03
    -13.467  0.2132E+02  0.1916E+03
    -13.453  0.2149E+02  0.1919E+03
    -13.439  0.2165E+02  0.1922E+03
    -13.425  0.2179E+02  0.1925E+03
    -13.411  0.2192E+02  0.1928E+03
    -13.397  0.2203E+02  0.1931E+03
    -13.384  0.2213E+02  0.1934E+03
    -13.370  0.2222E+02  0.1937E+03
    -13.356  0.2228E+02  0.1940E+03
    -13.342  0.2234E+02  0.1943E+03
    -13.328  0.2238E+02  0.1946E+03
    -13.314  0.2241E+02  0.1949E+03
    -13.300  0.2243E+02  0.1953E+03
    -13.287  0.2244E+02  0.1956E+03
    -13.273  0.2244E+02  0.1959E+03
    -13.259  0.2244E+02  0.1962E+03
    -13.245  0.2243E+02  0.1965E+03
    -13.231  0.2242E+02  0.1968E+03
    -13.217  0.2240E+02  0.1971E+03
    -13.204  0.2238E+02  0.1974E+03
    -13.190  0.2235E+02  0.1977E+03
    -13.176  0.2231E+02  0.1981E+03
    -13.162  0.2226E+02  0.1984E+03
    -13.148  0.2220E+02  0.1987E+03
    -13.134  0.2213E+02  0.1990E+03
    -13.120  0.2206E+02  0.1993E+03
    -13.107  0.2197E+02  0.1996E+03
    -13.093  0.2188E+02  0.1999E+03
    -13.079  0.2178E+02  0.2002E+03
    -13.065  0.2167E+02  0.2005E+03
    -13.051  0.2156E+02  0.2008E+03
    -13.037  0.2145E+02  0.2011E+03
    -13.024  0.2134E+02  0.2014E+03
    -13.010  0.2123E+02  0.2017E+03
    -12.996  0.2113E+02  0.2020E+03
    -12.982  0.2104E+02  0.2023E+03
    -12.968  0.2097E+02  0.2025E+03
    -12.954  0.2090E+02  0.2028E+03
    -12.941  0.2085E+02  0.2031E+03
    -12.927  0.2082E+02  0.2034E+03
    -12.913  0.2081E+02  0.2037E+03
    -12.899  0.2081E+02  0.2040E+03
    -12.885  0.2083E+02  0.2043E+03
    -12.871  0.2087E+02  0.2046E+03
    -12.857  0.2092E+02  0.2049E+03
    -12.844  0.2100E+02  0.2051E+03
    -12.830  0.2109E+02  0.2054E+03
    -12.816  0.2119E+02  0.2057E+03
    -12.802  0.2132E+02  0.2060E+03
    -12.788  0.2145E+02  0.2063E+03
    -12.774  0.2161E+02  0.2066E+03