 212 212   0   0
  0.4930992E+02  0.2814521E-08  0.1857102E-08  0.2000000E-08  0.5000000E-15
  1.000000000000000E-004
  CAR 
 unknown system                          
      3.28452609    -24.46806184 2000     -3.61175704      1.00000000
    -24.468  0.0000E+00  0.0000E+00
    -24.454  0.0000E+00  0.0000E+00
    -24.440  0.0000E+00  0.0000E+00
    -24.426  0.0000E+00  0.0000E+00
    -24.413  0.0000E+00  0.0000E+00
    -24.399  0.0000E+00  0.0000E+00
    -24.385  0.0000E+00  0.0000E+00
    -24.371  0.0000E+00  0.0000E+00
    -24.357  0.0000E+00  0.0000E+00
    -24.343  0.0000E+00  0.0000E+00
    -24.329  0.0000E+00  0.0000E+00
    -24.315  0.0000E+00  0.0000E+00
    -24.301  0.0000E+00  0.0000E+00
    -24.288  0.0000E+00  0.0000E+00
    -24.274  0.0000E+00  0.0000E+00
    -24.260  0.0000E+00  0.0000E+00
    -24.246  0.0000E+00  0.0000E+00
    -24.232  0.0000E+00  0.0000E+00
    -24.218  0.0000E+00  0.0000E+00
    -24.204  0.0000E+00  0.0000E+00
    -24.190  0.0000E+00  0.0000E+00
    -24.177  0.0000E+00  0.0000E+00
    -24.163  0.0000E+00  0.0000E+00
    -24.149  0.0000E+00  0.0000E+00
    -24.135  0.0000E+00  0.0000E+00
    -24.121  0.0000E+00  0.0000E+00
    -24.107  0.0000E+00  0.0000E+00
    -24.093  0.0000E+00  0.0000E+00
    -24.079  0.0000E+00  0.0000E+00
    -24.065  0.0000E+00  0.0000E+00
    -24.052  0.0000E+00  0.0000E+00
    -24.038  0.0000E+00  0.0000E+00
    -24.024  0.0000E+00  0.0000E+00
    -24.010  0.0000E+00  0.0000E+00
    -23.996  0.0000E+00  0.0000E+00
    -23.982  0.0000E+00  0.0000E+00
    -23.968  0.0000E+00  0.0000E+00
    -23.954  0.0000E+00  0.0000E+00
    -23.940  0.0000E+00  0.0000E+00
    -23.927  0.0000E+00  0.0000E+00
    -23.913  0.0000E+00  0.0000E+00
    -23.899  0.0000E+00  0.0000E+00
    -23.885  0.0000E+00  0.0000E+00
    -23.871  0.0000E+00  0.0000E+00
    -23.857  0.0000E+00  0.0000E+00
    -23.843  0.0000E+00  0.0000E+00
    -23.829  0.0000E+00  0.0000E+00
    -23.816  0.0000E+00  0.0000E+00
    -23.802  0.0000E+00  0.0000E+00
    -23.788  0.0000E+00  0.0000E+00
    -23.774  0.0000E+00  0.0000E+00
    -23.760  0.0000E+00  0.0000E+00
    -23.746  0.0000E+00  0.0000E+00
    -23.732  0.0000E+00  0.0000E+00
    -23.718  0.0000E+00  0.0000E+00
    -23.704  0.0000E+00  0.0000E+00
    -23.691  0.0000E+00  0.0000E+00
    -23.677  0.0000E+00  0.0000E+00
    -23.663  0.0000E+00  0.0000E+00
    -23.649  0.2666E-14  0.3701E-16
    -23.635  0.5331E-14  0.1110E-15
    -23.621  0.1066E-13  0.2591E-15
    -23.607  0.2666E-13  0.6291E-15
    -23.593  0.6131E-13  0.1480E-14
    -23.580  0.1306E-12  0.3294E-14
    -23.566  0.2799E-12  0.7179E-14
    -23.552  0.5971E-12  0.1547E-13
    -23.538  0.1269E-11  0.3308E-13
    -23.524  0.2674E-11  0.7020E-13
    -23.510  0.5571E-11  0.1475E-12
    -23.496  0.1150E-10  0.3073E-12
    -23.482  0.2351E-10  0.6337E-12
    -23.468  0.4761E-10  0.1295E-11
    -23.455  0.9549E-10  0.2620E-11
    -23.441  0.1897E-09  0.5253E-11
    -23.427  0.3731E-09  0.1043E-10
    -23.413  0.7269E-09  0.2052E-10
    -23.399  0.1403E-08  0.4000E-10
    -23.385  0.2681E-08  0.7722E-10
    -23.371  0.5074E-08  0.1477E-09
    -23.357  0.9513E-08  0.2797E-09
    -23.344  0.1766E-07  0.5250E-09
    -23.330  0.3248E-07  0.9759E-09
    -23.316  0.5916E-07  0.1797E-08
    -23.302  0.1067E-06  0.3279E-08
    -23.288  0.1907E-06  0.5926E-08
    -23.274  0.3374E-06  0.1061E-07
    -23.260  0.5913E-06  0.1882E-07
    -23.246  0.1026E-05  0.3307E-07
    -23.232  0.1765E-05  0.5757E-07
    -23.219  0.3004E-05  0.9928E-07
    -23.205  0.5067E-05  0.1696E-06
    -23.191  0.8462E-05  0.2871E-06
    -23.177  0.1400E-04  0.4814E-06
    -23.163  0.2293E-04  0.7998E-06
    -23.149  0.3721E-04  0.1316E-05
    -23.135  0.5981E-04  0.2147E-05
    -23.121  0.9519E-04  0.3468E-05
    -23.108  0.1501E-03  0.5552E-05
    -23.094  0.2343E-03  0.8805E-05
    -23.080  0.3623E-03  0.1384E-04
    -23.066  0.5550E-03  0.2154E-04
    -23.052  0.8418E-03  0.3323E-04
    -23.038  0.1265E-02  0.5079E-04
    -23.024  0.1882E-02  0.7691E-04
    -23.010  0.2774E-02  0.1154E-03
    -22.996  0.4048E-02  0.1716E-03
    -22.983  0.5853E-02  0.2529E-03
    -22.969  0.8380E-02  0.3692E-03
    -22.955  0.1188E-01  0.5342E-03
    -22.941  0.1669E-01  0.7659E-03
    -22.927  0.2322E-01  0.1088E-02
    -22.913  0.3199E-01  0.1532E-02
    -22.899  0.4365E-01  0.2138E-02
    -22.885  0.5900E-01  0.2958E-02
    -22.871  0.7898E-01  0.4054E-02
    -22.858  0.1047E+00  0.5508E-02
    -22.844  0.1375E+00  0.7417E-02
    -22.830  0.1789E+00  0.9900E-02
    -22.816  0.2304E+00  0.1310E-01
    -22.802  0.2940E+00  0.1718E-01
    -22.788  0.3716E+00  0.2234E-01
    -22.774  0.4652E+00  0.2880E-01
    -22.760  0.5768E+00  0.3681E-01
    -22.747  0.7085E+00  0.4664E-01
    -22.733  0.8619E+00  0.5861E-01
    -22.719  0.1039E+01  0.7303E-01
    -22.705  0.1240E+01  0.9025E-01
    -22.691  0.1467E+01  0.1106E+00
    -22.677  0.1719E+01  0.1345E+00
    -22.663  0.1995E+01  0.1622E+00
    -22.649  0.2295E+01  0.1940E+00
    -22.635  0.2617E+01  0.2304E+00
    -22.622  0.2956E+01  0.2714E+00
    -22.608  0.3310E+01  0.3174E+00
    -22.594  0.3674E+01  0.3684E+00
    -22.580  0.4044E+01  0.4245E+00
    -22.566  0.4414E+01  0.4858E+00
    -22.552  0.4779E+01  0.5521E+00
    -22.538  0.5135E+01  0.6234E+00
    -22.524  0.5476E+01  0.6994E+00
    -22.511  0.5801E+01  0.7800E+00
    -22.497  0.6105E+01  0.8647E+00
    -22.483  0.6389E+01  0.9534E+00
    -22.469  0.6651E+01  0.1046E+01
    -22.455  0.6895E+01  0.1142E+01
    -22.441  0.7123E+01  0.1240E+01
    -22.427  0.7339E+01  0.1342E+01
    -22.413  0.7550E+01  0.1447E+01
    -22.399  0.7763E+01  0.1555E+01
    -22.386  0.7985E+01  0.1666E+01
    -22.372  0.8224E+01  0.1780E+01
    -22.358  0.8489E+01  0.1898E+01
    -22.344  0.8785E+01  0.2020E+01
    -22.330  0.9121E+01  0.2146E+01
    -22.316  0.9501E+01  0.2278E+01
    -22.302  0.9929E+01  0.2416E+01
    -22.288  0.1041E+02  0.2561E+01
    -22.275  0.1094E+02  0.2712E+01
    -22.261  0.1152E+02  0.2872E+01
    -22.247  0.1215E+02  0.3041E+01
    -22.233  0.1282E+02  0.3219E+01
    -22.219  0.1353E+02  0.3407E+01
    -22.205  0.1427E+02  0.3605E+01
    -22.191  0.1504E+02  0.3814E+01
    -22.177  0.1582E+02  0.4034E+01
    -22.163  0.1660E+02  0.4264E+01
    -22.150  0.1738E+02  0.4505E+01
    -22.136  0.1815E+02  0.4757E+01
    -22.122  0.1890E+02  0.5020E+01
    -22.108  0.1962E+02  0.5292E+01
    -22.094  0.2031E+02  0.5574E+01
    -22.080  0.2096E+02  0.5865E+01
    -22.066  0.2157E+02  0.6165E+01
    -22.052  0.2214E+02  0.6472E+01
    -22.038  0.2265E+02  0.6787E+01
    -22.025  0.2312E+02  0.7108E+01
    -22.011  0.2355E+02  0.7435E+01
    -21.997  0.2393E+02  0.7767E+01
    -21.983  0.2428E+02  0.8104E+01
    -21.969  0.2458E+02  0.8445E+01
    -21.955  0.2486E+02  0.8790E+01
    -21.941  0.2510E+02  0.9139E+01
    -21.927  0.2532E+02  0.9490E+01
    -21.914  0.2552E+02  0.9844E+01
    -21.900  0.2570E+02  0.1020E+02
    -21.886  0.2587E+02  0.1056E+02
    -21.872  0.2603E+02  0.1092E+02
    -21.858  0.2618E+02  0.1129E+02
    -21.844  0.2632E+02  0.1165E+02
    -21.830  0.2646E+02  0.1202E+02
    -21.816  0.2659E+02  0.1239E+02
    -21.802  0.2672E+02  0.1276E+02
    -21.789  0.2685E+02  0.1313E+02
    -21.775  0.2698E+02  0.1351E+02
    -21.761  0.2710E+02  0.1388E+02
    -21.747  0.2723E+02  0.1426E+02
    -21.733  0.2736E+02  0.1464E+02
    -21.719  0.2749E+02  0.1502E+02
    -21.705  0.2764E+02  0.1541E+02
    -21.691  0.2779E+02  0.1579E+02
    -21.678  0.2796E+02  0.1618E+02
    -21.664  0.2815E+02  0.1657E+02
    -21.650  0.2835E+02  0.1696E+02
    -21.636  0.2856E+02  0.1736E+02
    -21.622  0.2879E+02  0.1776E+02
    -21.608  0.2904E+02  0.1816E+02
    -21.594  0.2929E+02  0.1857E+02
    -21.580  0.2955E+02  0.1898E+02
    -21.566  0.2980E+02  0.1939E+02
    -21.553  0.3004E+02  0.1981E+02
    -21.539  0.3026E+02  0.2023E+02
    -21.525  0.3045E+02  0.2065E+02
    -21.511  0.3061E+02  0.2108E+02
    -21.497  0.3072E+02  0.2150E+02
    -21.483  0.3077E+02  0.2193E+02
    -21.469  0.3077E+02  0.2236E+02
    -21.455  0.3070E+02  0.2279E+02
    -21.442  0.3057E+02  0.2321E+02
    -21.428  0.3037E+02  0.2363E+02
    -21.414  0.3011E+02  0.2405E+02
    -21.400  0.2980E+02  0.2446E+02
    -21.386  0.2944E+02  0.2487E+02
    -21.372  0.2903E+02  0.2528E+02
    -21.358  0.2860E+02  0.2567E+02
    -21.344  0.2816E+02  0.2606E+02
    -21.330  0.2771E+02  0.2645E+02
    -21.317  0.2727E+02  0.2683E+02
    -21.303  0.2685E+02  0.2720E+02
    -21.289  0.2646E+02  0.2757E+02
    -21.275  0.2611E+02  0.2793E+02
    -21.261  0.2581E+02  0.2829E+02
    -21.247  0.2557E+02  0.2864E+02
    -21.233  0.2539E+02  0.2899E+02
    -21.219  0.2527E+02  0.2935E+02
    -21.206  0.2521E+02  0.2970E+02
    -21.192  0.2521E+02  0.3005E+02
    -21.178  0.2526E+02  0.3040E+02
    -21.164  0.2537E+02  0.3075E+02
    -21.150  0.2553E+02  0.3110E+02
    -21.136  0.2572E+02  0.3146E+02
    -21.122  0.2594E+02  0.3182E+02
    -21.108  0.2619E+02  0.3218E+02
    -21.094  0.2645E+02  0.3255E+02
    -21.081  0.2671E+02  0.3292E+02
    -21.067  0.2698E+02  0.3330E+02
    -21.053  0.2724E+02  0.3367E+02
    -21.039  0.2748E+02  0.3406E+02
    -21.025  0.2771E+02  0.3444E+02
    -21.011  0.2791E+02  0.3483E+02
    -20.997  0.2809E+02  0.3522E+02
    -20.983  0.2823E+02  0.3561E+02
    -20.969  0.2835E+02  0.3600E+02
    -20.956  0.2844E+02  0.3640E+02
    -20.942  0.2851E+02  0.3679E+02
    -20.928  0.2855E+02  0.3719E+02
    -20.914  0.2857E+02  0.3759E+02
    -20.900  0.2857E+02  0.3798E+02
    -20.886  0.2857E+02  0.3838E+02
    -20.872  0.2856E+02  0.3878E+02
    -20.858  0.2855E+02  0.3917E+02
    -20.845  0.2855E+02  0.3957E+02
    -20.831  0.2856E+02  0.3997E+02
    -20.817  0.2859E+02  0.4036E+02
    -20.803  0.2864E+02  0.4076E+02
    -20.789  0.2871E+02  0.4116E+02
    -20.775  0.2881E+02  0.4156E+02
    -20.761  0.2893E+02  0.4196E+02
    -20.747  0.2909E+02  0.4236E+02
    -20.733  0.2927E+02  0.4277E+02
    -20.720  0.2947E+02  0.4318E+02
    -20.706  0.2970E+02  0.4359E+02
    -20.692  0.2995E+02  0.4401E+02
    -20.678  0.3022E+02  0.4443E+02
    -20.664  0.3050E+02  0.4485E+02
    -20.650  0.3078E+02  0.4528E+02
    -20.636  0.3107E+02  0.4571E+02
    -20.622  0.3135E+02  0.4615E+02
    -20.609  0.3163E+02  0.4658E+02
    -20.595  0.3189E+02  0.4703E+02
    -20.581  0.3215E+02  0.4747E+02
    -20.567  0.3238E+02  0.4792E+02
    -20.553  0.3260E+02  0.4838E+02
    -20.539  0.3280E+02  0.4883E+02
    -20.525  0.3299E+02  0.4929E+02
    -20.511  0.3316E+02  0.4975E+02
    -20.497  0.3331E+02  0.5021E+02
    -20.484  0.3346E+02  0.5068E+02
    -20.470  0.3360E+02  0.5114E+02
    -20.456  0.3374E+02  0.5161E+02
    -20.442  0.3388E+02  0.5208E+02
    -20.428  0.3403E+02  0.5255E+02
    -20.414  0.3419E+02  0.5303E+02
    -20.400  0.3436E+02  0.5351E+02
    -20.386  0.3454E+02  0.5398E+02
    -20.373  0.3475E+02  0.5447E+02
    -20.359  0.3496E+02  0.5495E+02
    -20.345  0.3519E+02  0.5544E+02
    -20.331  0.3543E+02  0.5593E+02
    -20.317  0.3567E+02  0.5643E+02
    -20.303  0.3591E+02  0.5693E+02
    -20.289  0.3615E+02  0.5743E+02
    -20.275  0.3638E+02  0.5793E+02
    -20.261  0.3659E+02  0.5844E+02
    -20.248  0.3678E+02  0.5895E+02
    -20.234  0.3694E+02  0.5947E+02
    -20.220  0.3707E+02  0.5998E+02
    -20.206  0.3717E+02  0.6050E+02
    -20.192  0.3724E+02  0.6101E+02
    -20.178  0.3726E+02  0.6153E+02
    -20.164  0.3725E+02  0.6205E+02
    -20.150  0.3720E+02  0.6256E+02
    -20.136  0.3712E+02  0.6308E+02
    -20.123  0.3701E+02  0.6359E+02
    -20.109  0.3686E+02  0.6410E+02
    -20.095  0.3669E+02  0.6461E+02
    -20.081  0.3650E+02  0.6512E+02
    -20.067  0.3628E+02  0.6562E+02
    -20.053  0.3605E+02  0.6612E+02
    -20.039  0.3581E+02  0.6662E+02
    -20.025  0.3557E+02  0.6712E+02
    -20.012  0.3531E+02  0.6761E+02
    -19.998  0.3506E+02  0.6809E+02
    -19.984  0.3481E+02  0.6858E+02
    -19.970  0.3456E+02  0.6906E+02
    -19.956  0.3432E+02  0.6953E+02
    -19.942  0.3409E+02  0.7001E+02
    -19.928  0.3386E+02  0.7048E+02
    -19.914  0.3365E+02  0.7094E+02
    -19.900  0.3345E+02  0.7141E+02
    -19.887  0.3326E+02  0.7187E+02
    -19.873  0.3308E+02  0.7233E+02
    -19.859  0.3291E+02  0.7279E+02
    -19.845  0.3275E+02  0.7324E+02
    -19.831  0.3260E+02  0.7369E+02
    -19.817  0.3246E+02  0.7414E+02
    -19.803  0.3232E+02  0.7459E+02
    -19.789  0.3218E+02  0.7504E+02
    -19.776  0.3206E+02  0.7548E+02
    -19.762  0.3193E+02  0.7593E+02
    -19.748  0.3181E+02  0.7637E+02
    -19.734  0.3169E+02  0.7681E+02
    -19.720  0.3157E+02  0.7725E+02
    -19.706  0.3145E+02  0.7768E+02
    -19.692  0.3135E+02  0.7812E+02
    -19.678  0.3124E+02  0.7855E+02
    -19.664  0.3115E+02  0.7898E+02
    -19.651  0.3107E+02  0.7942E+02
    -19.637  0.3100E+02  0.7985E+02
    -19.623  0.3095E+02  0.8028E+02
    -19.609  0.3091E+02  0.8071E+02
    -19.595  0.3089E+02  0.8113E+02
    -19.581  0.3089E+02  0.8156E+02
    -19.567  0.3091E+02  0.8199E+02
    -19.553  0.3094E+02  0.8242E+02
    -19.540  0.3098E+02  0.8285E+02
    -19.526  0.3104E+02  0.8328E+02
    -19.512  0.3111E+02  0.8371E+02
    -19.498  0.3119E+02  0.8415E+02
    -19.484  0.3126E+02  0.8458E+02
    -19.470  0.3134E+02  0.8502E+02
    -19.456  0.3141E+02  0.8545E+02
    -19.442  0.3147E+02  0.8589E+02
    -19.428  0.3152E+02  0.8633E+02
    -19.415  0.3156E+02  0.8677E+02
    -19.401  0.3158E+02  0.8720E+02
    -19.387  0.3159E+02  0.8764E+02
    -19.373  0.3158E+02  0.8808E+02
    -19.359  0.3157E+02  0.8852E+02
    -19.345  0.3154E+02  0.8896E+02
    -19.331  0.3151E+02  0.8939E+02
    -19.317  0.3148E+02  0.8983E+02
    -19.303  0.3145E+02  0.9027E+02
    -19.290  0.3143E+02  0.9070E+02
    -19.276  0.3143E+02  0.9114E+02
    -19.262  0.3145E+02  0.9158E+02
    -19.248  0.3149E+02  0.9202E+02
    -19.234  0.3156E+02  0.9245E+02
    -19.220  0.3167E+02  0.9289E+02
    -19.206  0.3181E+02  0.9333E+02
    -19.192  0.3198E+02  0.9378E+02
    -19.179  0.3220E+02  0.9423E+02
    -19.165  0.3246E+02  0.9468E+02
    -19.151  0.3275E+02  0.9513E+02
    -19.137  0.3308E+02  0.9559E+02
    -19.123  0.3345E+02  0.9605E+02
    -19.109  0.3385E+02  0.9652E+02
    -19.095  0.3427E+02  0.9700E+02
    -19.081  0.3472E+02  0.9748E+02
    -19.067  0.3518E+02  0.9797E+02
    -19.054  0.3565E+02  0.9847E+02
    -19.040  0.3613E+02  0.9897E+02
    -19.026  0.3660E+02  0.9948E+02
    -19.012  0.3707E+02  0.9999E+02
    -18.998  0.3752E+02  0.1005E+03
    -18.984  0.3794E+02  0.1010E+03
    -18.970  0.3834E+02  0.1016E+03
    -18.956  0.3871E+02  0.1021E+03
    -18.943  0.3903E+02  0.1026E+03
    -18.929  0.3931E+02  0.1032E+03
    -18.915  0.3955E+02  0.1037E+03
    -18.901  0.3974E+02  0.1043E+03
    -18.887  0.3988E+02  0.1048E+03
    -18.873  0.3997E+02  0.1054E+03
    -18.859  0.4001E+02  0.1060E+03
    -18.845  0.4001E+02  0.1065E+03
    -18.831  0.3997E+02  0.1071E+03
    -18.818  0.3989E+02  0.1076E+03
    -18.804  0.3978E+02  0.1082E+03
    -18.790  0.3964E+02  0.1087E+03
    -18.776  0.3947E+02  0.1093E+03
    -18.762  0.3929E+02  0.1098E+03
    -18.748  0.3909E+02  0.1104E+03
    -18.734  0.3888E+02  0.1109E+03
    -18.720  0.3866E+02  0.1114E+03
    -18.707  0.3844E+02  0.1120E+03
    -18.693  0.3822E+02  0.1125E+03
    -18.679  0.3800E+02  0.1130E+03
    -18.665  0.3778E+02  0.1136E+03
    -18.651  0.3756E+02  0.1141E+03
    -18.637  0.3734E+02  0.1146E+03
    -18.623  0.3713E+02  0.1151E+03
    -18.609  0.3692E+02  0.1156E+03
    -18.595  0.3671E+02  0.1161E+03
    -18.582  0.3650E+02  0.1166E+03
    -18.568  0.3630E+02  0.1171E+03
    -18.554  0.3609E+02  0.1176E+03
    -18.540  0.3589E+02  0.1181E+03
    -18.526  0.3569E+02  0.1186E+03
    -18.512  0.3549E+02  0.1191E+03
    -18.498  0.3529E+02  0.1196E+03
    -18.484  0.3510E+02  0.1201E+03
    -18.471  0.3491E+02  0.1206E+03
    -18.457  0.3472E+02  0.1211E+03
    -18.443  0.3454E+02  0.1216E+03
    -18.429  0.3437E+02  0.1220E+03
    -18.415  0.3421E+02  0.1225E+03
    -18.401  0.3405E+02  0.1230E+03
    -18.387  0.3391E+02  0.1235E+03
    -18.373  0.3379E+02  0.1239E+03
    -18.359  0.3367E+02  0.1244E+03
    -18.346  0.3358E+02  0.1249E+03
    -18.332  0.3350E+02  0.1253E+03
    -18.318  0.3344E+02  0.1258E+03
    -18.304  0.3340E+02  0.1262E+03
    -18.290  0.3338E+02  0.1267E+03
    -18.276  0.3338E+02  0.1272E+03
    -18.262  0.3340E+02  0.1276E+03
    -18.248  0.3343E+02  0.1281E+03
    -18.234  0.3347E+02  0.1286E+03
    -18.221  0.3353E+02  0.1290E+03
    -18.207  0.3359E+02  0.1295E+03
    -18.193  0.3366E+02  0.1300E+03
    -18.179  0.3373E+02  0.1304E+03
    -18.165  0.3381E+02  0.1309E+03
    -18.151  0.3387E+02  0.1314E+03
    -18.137  0.3393E+02  0.1318E+03
    -18.123  0.3398E+02  0.1323E+03
    -18.110  0.3402E+02  0.1328E+03
    -18.096  0.3404E+02  0.1333E+03
    -18.082  0.3405E+02  0.1337E+03
    -18.068  0.3404E+02  0.1342E+03
    -18.054  0.3402E+02  0.1347E+03
    -18.040  0.3398E+02  0.1351E+03
    -18.026  0.3393E+02  0.1356E+03
    -18.012  0.3386E+02  0.1361E+03
    -17.998  0.3379E+02  0.1366E+03
    -17.985  0.3370E+02  0.1370E+03
    -17.971  0.3362E+02  0.1375E+03
    -17.957  0.3353E+02  0.1380E+03
    -17.943  0.3345E+02  0.1384E+03
    -17.929  0.3338E+02  0.1389E+03
    -17.915  0.3332E+02  0.1394E+03
    -17.901  0.3327E+02  0.1398E+03
    -17.887  0.3324E+02  0.1403E+03
    -17.874  0.3323E+02  0.1407E+03
    -17.860  0.3324E+02  0.1412E+03
    -17.846  0.3328E+02  0.1417E+03
    -17.832  0.3333E+02  0.1421E+03
    -17.818  0.3341E+02  0.1426E+03
    -17.804  0.3351E+02  0.1431E+03
    -17.790  0.3363E+02  0.1435E+03
    -17.776  0.3377E+02  0.1440E+03
    -17.762  0.3392E+02  0.1445E+03
    -17.749  0.3408E+02  0.1449E+03
    -17.735  0.3425E+02  0.1454E+03
    -17.721  0.3442E+02  0.1459E+03
    -17.707  0.3460E+02  0.1464E+03
    -17.693  0.3477E+02  0.1468E+03
    -17.679  0.3494E+02  0.1473E+03
    -17.665  0.3511E+02  0.1478E+03
    -17.651  0.3528E+02  0.1483E+03
    -17.638  0.3544E+02  0.1488E+03
    -17.624  0.3561E+02  0.1493E+03
    -17.610  0.3577E+02  0.1498E+03
    -17.596  0.3594E+02  0.1503E+03
    -17.582  0.3610E+02  0.1508E+03
    -17.568  0.3627E+02  0.1513E+03
    -17.554  0.3645E+02  0.1518E+03
    -17.540  0.3662E+02  0.1523E+03
    -17.526  0.3680E+02  0.1528E+03
    -17.513  0.3697E+02  0.1533E+03
    -17.499  0.3715E+02  0.1539E+03
    -17.485  0.3731E+02  0.1544E+03
    -17.471  0.3746E+02  0.1549E+03
    -17.457  0.3759E+02  0.1554E+03
    -17.443  0.3769E+02  0.1559E+03
    -17.429  0.3777E+02  0.1565E+03
    -17.415  0.3782E+02  0.1570E+03
    -17.401  0.3782E+02  0.1575E+03
    -17.388  0.3779E+02  0.1580E+03
    -17.374  0.3771E+02  0.1586E+03
    -17.360  0.3759E+02  0.1591E+03
    -17.346  0.3742E+02  0.1596E+03
    -17.332  0.3721E+02  0.1601E+03
    -17.318  0.3697E+02  0.1606E+03
    -17.304  0.3669E+02  0.1611E+03
    -17.290  0.3638E+02  0.1616E+03
    -17.277  0.3605E+02  0.1621E+03
    -17.263  0.3570E+02  0.1626E+03
    -17.249  0.3535E+02  0.1631E+03
    -17.235  0.3498E+02  0.1636E+03
    -17.221  0.3463E+02  0.1641E+03
    -17.207  0.3428E+02  0.1646E+03
    -17.193  0.3394E+02  0.1650E+03
    -17.179  0.3363E+02  0.1655E+03
    -17.165  0.3334E+02  0.1660E+03
    -17.152  0.3307E+02  0.1664E+03
    -17.138  0.3283E+02  0.1669E+03
    -17.124  0.3263E+02  0.1673E+03
    -17.110  0.3246E+02  0.1678E+03
    -17.096  0.3232E+02  0.1682E+03
    -17.082  0.3221E+02  0.1687E+03
    -17.068  0.3213E+02  0.1691E+03
    -17.054  0.3208E+02  0.1696E+03
    -17.041  0.3206E+02  0.1700E+03
    -17.027  0.3207E+02  0.1705E+03
    -17.013  0.3211E+02  0.1709E+03
    -16.999  0.3216E+02  0.1714E+03
    -16.985  0.3224E+02  0.1718E+03
    -16.971  0.3234E+02  0.1723E+03
    -16.957  0.3245E+02  0.1727E+03
    -16.943  0.3258E+02  0.1732E+03
    -16.929  0.3271E+02  0.1736E+03
    -16.916  0.3286E+02  0.1741E+03
    -16.902  0.3302E+02  0.1745E+03
    -16.888  0.3317E+02  0.1750E+03
    -16.874  0.3333E+02  0.1755E+03
    -16.860  0.3349E+02  0.1759E+03
    -16.846  0.3364E+02  0.1764E+03
    -16.832  0.3378E+02  0.1769E+03
    -16.818  0.3391E+02  0.1773E+03
    -16.805  0.3402E+02  0.1778E+03
    -16.791  0.3412E+02  0.1783E+03
    -16.777  0.3420E+02  0.1787E+03
    -16.763  0.3427E+02  0.1792E+03
    -16.749  0.3431E+02  0.1797E+03
    -16.735  0.3433E+02  0.1802E+03
    -16.721  0.3434E+02  0.1806E+03
    -16.707  0.3432E+02  0.1811E+03
    -16.693  0.3430E+02  0.1816E+03
    -16.680  0.3426E+02  0.1821E+03
    -16.666  0.3421E+02  0.1826E+03
    -16.652  0.3416E+02  0.1830E+03
    -16.638  0.3410E+02  0.1835E+03
    -16.624  0.3405E+02  0.1840E+03
    -16.610  0.3400E+02  0.1844E+03
    -16.596  0.3396E+02  0.1849E+03
    -16.582  0.3393E+02  0.1854E+03
    -16.569  0.3391E+02  0.1859E+03
    -16.555  0.3390E+02  0.1863E+03
    -16.541  0.3390E+02  0.1868E+03
    -16.527  0.3391E+02  0.1873E+03
    -16.513  0.3393E+02  0.1877E+03
    -16.499  0.3396E+02  0.1882E+03
    -16.485  0.3399E+02  0.1887E+03
    -16.471  0.3402E+02  0.1892E+03
    -16.457  0.3405E+02  0.1896E+03
    -16.444  0.3407E+02  0.1901E+03
    -16.430  0.3408E+02  0.1906E+03
    -16.416  0.3408E+02  0.1910E+03
    -16.402  0.3407E+02  0.1915E+03
    -16.388  0.3405E+02  0.1920E+03
    -16.374  0.3401E+02  0.1925E+03
    -16.360  0.3395E+02  0.1929E+03
    -16.346  0.3388E+02  0.1934E+03
    -16.332  0.3379E+02  0.1939E+03
    -16.319  0.3370E+02  0.1943E+03
    -16.305  0.3359E+02  0.1948E+03
    -16.291  0.3348E+02  0.1953E+03
    -16.277  0.3337E+02  0.1957E+03
    -16.263  0.3326E+02  0.1962E+03
    -16.249  0.3315E+02  0.1967E+03
    -16.235  0.3306E+02  0.1971E+03
    -16.221  0.3297E+02  0.1976E+03
    -16.208  0.3289E+02  0.1980E+03
    -16.194  0.3283E+02  0.1985E+03
    -16.180  0.3279E+02  0.1989E+03
    -16.166  0.3276E+02  0.1994E+03
    -16.152  0.3274E+02  0.1999E+03
    -16.138  0.3274E+02  0.2003E+03
    -16.124  0.3275E+02  0.2008E+03
    -16.110  0.3277E+02  0.2012E+03
    -16.096  0.3279E+02  0.2017E+03
    -16.083  0.3282E+02  0.2021E+03
    -16.069  0.3285E+02  0.2026E+03
    -16.055  0.3287E+02  0.2030E+03
    -16.041  0.3289E+02  0.2035E+03
    -16.027  0.3291E+02  0.2040E+03
    -16.013  0.3292E+02  0.2044E+03
    -15.999  0.3292E+02  0.2049E+03
    -15.985  0.3292E+02  0.2053E+03
    -15.972  0.3291E+02  0.2058E+03
    -15.958  0.3289E+02  0.2062E+03
    -15.944  0.3288E+02  0.2067E+03
    -15.930  0.3286E+02  0.2072E+03
    -15.916  0.3285E+02  0.2076E+03
    -15.902  0.3285E+02  0.2081E+03
    -15.888  0.3286E+02  0.2085E+03
    -15.874  0.3288E+02  0.2090E+03
    -15.860  0.3292E+02  0.2094E+03
    -15.847  0.3297E+02  0.2099E+03
    -15.833  0.3305E+02  0.2104E+03
    -15.819  0.3315E+02  0.2108E+03
    -15.805  0.3327E+02  0.2113E+03
    -15.791  0.3342E+02  0.2117E+03
    -15.777  0.3358E+02  0.2122E+03
    -15.763  0.3377E+02  0.2127E+03
    -15.749  0.3397E+02  0.2131E+03
    -15.736  0.3419E+02  0.2136E+03
    -15.722  0.3442E+02  0.2141E+03
    -15.708  0.3465E+02  0.2146E+03
    -15.694  0.3489E+02  0.2151E+03
    -15.680  0.3513E+02  0.2156E+03
    -15.666  0.3536E+02  0.2160E+03
    -15.652  0.3557E+02  0.2165E+03
    -15.638  0.3577E+02  0.2170E+03
    -15.624  0.3595E+02  0.2175E+03
    -15.611  0.3610E+02  0.2180E+03
    -15.597  0.3622E+02  0.2185E+03
    -15.583  0.3631E+02  0.2190E+03
    -15.569  0.3635E+02  0.2195E+03
    -15.555  0.3636E+02  0.2200E+03
    -15.541  0.3633E+02  0.2206E+03
    -15.527  0.3626E+02  0.2211E+03
    -15.513  0.3615E+02  0.2216E+03
    -15.499  0.3601E+02  0.2221E+03
    -15.486  0.3584E+02  0.2226E+03
    -15.472  0.3564E+02  0.2231E+03
    -15.458  0.3542E+02  0.2235E+03
    -15.444  0.3518E+02  0.2240E+03
    -15.430  0.3493E+02  0.2245E+03
    -15.416  0.3467E+02  0.2250E+03
    -15.402  0.3442E+02  0.2255E+03
    -15.388  0.3418E+02  0.2259E+03
    -15.375  0.3394E+02  0.2264E+03
    -15.361  0.3372E+02  0.2269E+03
    -15.347  0.3352E+02  0.2274E+03
    -15.333  0.3334E+02  0.2278E+03
    -15.319  0.3318E+02  0.2283E+03
    -15.305  0.3304E+02  0.2287E+03
    -15.291  0.3291E+02  0.2292E+03
    -15.277  0.3281E+02  0.2296E+03
    -15.263  0.3272E+02  0.2301E+03
    -15.250  0.3264E+02  0.2306E+03
    -15.236  0.3258E+02  0.2310E+03
    -15.222  0.3252E+02  0.2315E+03
    -15.208  0.3247E+02  0.2319E+03
    -15.194  0.3241E+02  0.2324E+03
    -15.180  0.3236E+02  0.2328E+03
    -15.166  0.3232E+02  0.2333E+03
    -15.152  0.3227E+02  0.2337E+03
    -15.139  0.3223E+02  0.2342E+03
    -15.125  0.3218E+02  0.2346E+03
    -15.111  0.3215E+02  0.2350E+03
    -15.097  0.3212E+02  0.2355E+03
    -15.083  0.3211E+02  0.2359E+03
    -15.069  0.3210E+02  0.2364E+03
    -15.055  0.3211E+02  0.2368E+03
    -15.041  0.3215E+02  0.2373E+03
    -15.027  0.3220E+02  0.2377E+03
    -15.014  0.3227E+02  0.2382E+03
    -15.000  0.3237E+02  0.2386E+03
    -14.986  0.3249E+02  0.2391E+03
    -14.972  0.3264E+02  0.2395E+03
    -14.958  0.3281E+02  0.2400E+03
    -14.944  0.3300E+02  0.2404E+03
    -14.930  0.3321E+02  0.2409E+03
    -14.916  0.3344E+02  0.2414E+03
    -14.903  0.3368E+02  0.2418E+03
    -14.889  0.3394E+02  0.2423E+03
    -14.875  0.3421E+02  0.2428E+03
    -14.861  0.3449E+02  0.2433E+03
    -14.847  0.3477E+02  0.2437E+03
    -14.833  0.3505E+02  0.2442E+03
    -14.819  0.3533E+02  0.2447E+03
    -14.805  0.3561E+02  0.2452E+03
    -14.791  0.3588E+02  0.2457E+03
    -14.778  0.3615E+02  0.2462E+03
    -14.764  0.3640E+02  0.2467E+03
    -14.750  0.3664E+02  0.2472E+03
    -14.736  0.3687E+02  0.2477E+03
    -14.722  0.3708E+02  0.2483E+03
    -14.708  0.3727E+02  0.2488E+03
    -14.694  0.3744E+02  0.2493E+03
    -14.680  0.3759E+02  0.2498E+03
    -14.666  0.3772E+02  0.2503E+03
    -14.653  0.3781E+02  0.2509E+03
    -14.639  0.3788E+02  0.2514E+03
    -14.625  0.3792E+02  0.2519E+03
    -14.611  0.3793E+02  0.2524E+03
    -14.597  0.3791E+02  0.2530E+03
    -14.583  0.3786E+02  0.2535E+03
    -14.569  0.3778E+02  0.2540E+03
    -14.555  0.3767E+02  0.2545E+03
    -14.542  0.3754E+02  0.2551E+03
    -14.528  0.3738E+02  0.2556E+03
    -14.514  0.3720E+02  0.2561E+03
    -14.500  0.3700E+02  0.2566E+03
    -14.486  0.3679E+02  0.2571E+03
    -14.472  0.3658E+02  0.2576E+03
    -14.458  0.3636E+02  0.2581E+03
    -14.444  0.3616E+02  0.2586E+03
    -14.430  0.3596E+02  0.2591E+03
    -14.417  0.3577E+02  0.2596E+03
    -14.403  0.3561E+02  0.2601E+03
    -14.389  0.3547E+02  0.2606E+03
    -14.375  0.3536E+02  0.2611E+03
    -14.361  0.3528E+02  0.2616E+03
    -14.347  0.3523E+02  0.2621E+03
    -14.333  0.3521E+02  0.2626E+03
    -14.319  0.3521E+02  0.2631E+03
    -14.306  0.3525E+02  0.2636E+03
    -14.292  0.3531E+02  0.2640E+03
    -14.278  0.3539E+02  0.2645E+03
    -14.264  0.3548E+02  0.2650E+03
    -14.250  0.3559E+02  0.2655E+03
    -14.236  0.3569E+02  0.2660E+03
    -14.222  0.3580E+02  0.2665E+03
    -14.208  0.3590E+02  0.2670E+03
    -14.194  0.3599E+02  0.2675E+03
    -14.181  0.3606E+02  0.2680E+03
    -14.167  0.3611E+02  0.2685E+03
    -14.153  0.3614E+02  0.2690E+03
    -14.139  0.3616E+02  0.2695E+03
    -14.125  0.3614E+02  0.2700E+03
    -14.111  0.3611E+02  0.2705E+03
    -14.097  0.3606E+02  0.2710E+03
    -14.083  0.3598E+02  0.2715E+03
    -14.070  0.3589E+02  0.2720E+03
    -14.056  0.3579E+02  0.2725E+03
    -14.042  0.3568E+02  0.2730E+03
    -14.028  0.3556E+02  0.2735E+03
    -14.014  0.3543E+02  0.2740E+03
    -14.000  0.3530E+02  0.2745E+03
    -13.986  0.3516E+02  0.2750E+03
    -13.972  0.3503E+02  0.2755E+03
    -13.958  0.3490E+02  0.2759E+03
    -13.945  0.3478E+02  0.2764E+03
    -13.931  0.3466E+02  0.2769E+03
    -13.917  0.3455E+02  0.2774E+03
    -13.903  0.3445E+02  0.2779E+03
    -13.889  0.3435E+02  0.2783E+03
    -13.875  0.3428E+02  0.2788E+03
    -13.861  0.3422E+02  0.2793E+03
    -13.847  0.3417E+02  0.2798E+03
    -13.834  0.3415E+02  0.2802E+03
    -13.820  0.3415E+02  0.2807E+03
    -13.806  0.3417E+02  0.2812E+03
    -13.792  0.3422E+02  0.2817E+03
    -13.778  0.3429E+02  0.2821E+03
    -13.764  0.3440E+02  0.2826E+03
    -13.750  0.3452E+02  0.2831E+03
    -13.736  0.3468E+02  0.2836E+03
    -13.722  0.3485E+02  0.2841E+03
    -13.709  0.3505E+02  0.2846E+03
    -13.695  0.3527E+02  0.2850E+03
    -13.681  0.3550E+02  0.2855E+03
    -13.667  0.3574E+02  0.2860E+03
    -13.653  0.3599E+02  0.2865E+03
    -13.639  0.3624E+02  0.2870E+03
    -13.625  0.3650E+02  0.2875E+03
    -13.611  0.3675E+02  0.2881E+03
    -13.597  0.3700E+02  0.2886E+03
    -13.584  0.3724E+02  0.2891E+03
    -13.570  0.3747E+02  0.2896E+03
    -13.556  0.3769E+02  0.2901E+03
    -13.542  0.3790E+02  0.2907E+03
    -13.528  0.3811E+02  0.2912E+03
    -13.514  0.3830E+02  0.2917E+03
    -13.500  0.3849E+02  0.2922E+03
    -13.486  0.3867E+02  0.2928E+03
    -13.473  0.3884E+02  0.2933E+03
    -13.459  0.3901E+02  0.2939E+03
    -13.445  0.3918E+02  0.2944E+03
    -13.431  0.3933E+02  0.2950E+03
    -13.417  0.3949E+02  0.2955E+03
    -13.403  0.3963E+02  0.2961E+03
    -13.389  0.3976E+02  0.2966E+03
    -13.375  0.3988E+02  0.2972E+03
    -13.361  0.3997E+02  0.2977E+03
    -13.348  0.4005E+02  0.2983E+03
    -13.334  0.4009E+02  0.2988E+03
    -13.320  0.4010E+02  0.2994E+03
    -13.306  0.4007E+02  0.2999E+03
    -13.292  0.4000E+02  0.3005E+03
    -13.278  0.3988E+02  0.3010E+03
    -13.264  0.3971E+02  0.3016E+03
    -13.250  0.3949E+02  0.3021E+03
    -13.237  0.3921E+02  0.3027E+03
    -13.223  0.3890E+02  0.3032E+03
    -13.209  0.3853E+02  0.3038E+03
    -13.195  0.3814E+02  0.3043E+03
    -13.181  0.3771E+02  0.3048E+03
    -13.167  0.3726E+02  0.3053E+03
    -13.153  0.3680E+02  0.3058E+03
    -13.139  0.3635E+02  0.3064E+03
    -13.125  0.3591E+02  0.3069E+03
    -13.112  0.3549E+02  0.3073E+03
    -13.098  0.3510E+02  0.3078E+03
    -13.084  0.3476E+02  0.3083E+03
    -13.070  0.3447E+02  0.3088E+03
    -13.056  0.3423E+02  0.3093E+03
    -13.042  0.3405E+02  0.3097E+03
    -13.028  0.3393E+02  0.3102E+03
    -13.014  0.3386E+02  0.3107E+03