 140 140   0   0
  0.5199863E+02  0.2122078E-08  0.1715255E-08  0.2000000E-08  0.5000000E-15
  1.000000000000000E-004
  CAR 
 unknown system                          
      3.58980511    -24.47912940 2000     -3.44579302      1.00000000
    -24.479  0.0000E+00  0.0000E+00
    -24.465  0.0000E+00  0.0000E+00
    -24.451  0.0000E+00  0.0000E+00
    -24.437  0.0000E+00  0.0000E+00
    -24.423  0.0000E+00  0.0000E+00
    -24.409  0.0000E+00  0.0000E+00
    -24.395  0.0000E+00  0.0000E+00
    -24.381  0.0000E+00  0.0000E+00
    -24.367  0.0000E+00  0.0000E+00
    -24.353  0.0000E+00  0.0000E+00
    -24.339  0.0000E+00  0.0000E+00
    -24.325  0.0000E+00  0.0000E+00
    -24.311  0.0000E+00  0.0000E+00
    -24.297  0.0000E+00  0.0000E+00
    -24.283  0.0000E+00  0.0000E+00
    -24.269  0.0000E+00  0.0000E+00
    -24.254  0.0000E+00  0.0000E+00
    -24.240  0.0000E+00  0.0000E+00
    -24.226  0.0000E+00  0.0000E+00
    -24.212  0.0000E+00  0.0000E+00
    -24.198  0.0000E+00  0.0000E+00
    -24.184  0.0000E+00  0.0000E+00
    -24.170  0.0000E+00  0.0000E+00
    -24.156  0.0000E+00  0.0000E+00
    -24.142  0.0000E+00  0.0000E+00
    -24.128  0.0000E+00  0.0000E+00
    -24.114  0.0000E+00  0.0000E+00
    -24.100  0.0000E+00  0.0000E+00
    -24.086  0.0000E+00  0.0000E+00
    -24.072  0.0000E+00  0.0000E+00
    -24.058  0.0000E+00  0.0000E+00
    -24.044  0.0000E+00  0.0000E+00
    -24.030  0.0000E+00  0.0000E+00
    -24.016  0.0000E+00  0.0000E+00
    -24.002  0.0000E+00  0.0000E+00
    -23.988  0.0000E+00  0.0000E+00
    -23.974  0.0000E+00  0.0000E+00
    -23.960  0.0000E+00  0.0000E+00
    -23.946  0.0000E+00  0.0000E+00
    -23.932  0.0000E+00  0.0000E+00
    -23.917  0.0000E+00  0.0000E+00
    -23.903  0.0000E+00  0.0000E+00
    -23.889  0.0000E+00  0.0000E+00
    -23.875  0.0000E+00  0.0000E+00
    -23.861  0.0000E+00  0.0000E+00
    -23.847  0.0000E+00  0.0000E+00
    -23.833  0.0000E+00  0.0000E+00
    -23.819  0.0000E+00  0.0000E+00
    -23.805  0.0000E+00  0.0000E+00
    -23.791  0.0000E+00  0.0000E+00
    -23.777  0.0000E+00  0.0000E+00
    -23.763  0.0000E+00  0.0000E+00
    -23.749  0.0000E+00  0.0000E+00
    -23.735  0.0000E+00  0.0000E+00
    -23.721  0.0000E+00  0.0000E+00
    -23.707  0.0000E+00  0.0000E+00
    -23.693  0.0000E+00  0.0000E+00
    -23.679  0.0000E+00  0.0000E+00
    -23.665  0.0000E+00  0.0000E+00
    -23.651  0.7907E-14  0.1110E-15
    -23.637  0.2636E-14  0.1480E-15
    -23.623  0.2108E-13  0.4441E-15
    -23.609  0.4305E-13  0.1049E-14
    -23.595  0.8873E-13  0.2294E-14
    -23.580  0.1959E-12  0.5045E-14
    -23.566  0.4261E-12  0.1103E-13
    -23.552  0.9225E-12  0.2398E-13
    -23.538  0.1960E-11  0.5150E-13
    -23.524  0.4134E-11  0.1096E-12
    -23.510  0.8642E-11  0.2309E-12
    -23.496  0.1787E-10  0.4818E-12
    -23.482  0.3661E-10  0.9958E-12
    -23.468  0.7424E-10  0.2038E-11
    -23.454  0.1491E-09  0.4132E-11
    -23.440  0.2965E-09  0.8295E-11
    -23.426  0.5839E-09  0.1649E-10
    -23.412  0.1139E-08  0.3248E-10
    -23.398  0.2198E-08  0.6335E-10
    -23.384  0.4203E-08  0.1224E-09
    -23.370  0.7957E-08  0.2341E-09
    -23.356  0.1492E-07  0.4435E-09
    -23.342  0.2769E-07  0.8323E-09
    -23.328  0.5089E-07  0.1547E-08
    -23.314  0.9263E-07  0.2848E-08
    -23.300  0.1669E-06  0.5192E-08
    -23.286  0.2979E-06  0.9375E-08
    -23.272  0.5265E-06  0.1677E-07
    -23.258  0.9213E-06  0.2970E-07
    -23.243  0.1596E-05  0.5212E-07
    -23.229  0.2739E-05  0.9057E-07
    -23.215  0.4653E-05  0.1559E-06
    -23.201  0.7828E-05  0.2658E-06
    -23.187  0.1304E-04  0.4489E-06
    -23.173  0.2151E-04  0.7509E-06
    -23.159  0.3513E-04  0.1244E-05
    -23.145  0.5682E-04  0.2042E-05
    -23.131  0.9100E-04  0.3320E-05
    -23.117  0.1443E-03  0.5346E-05
    -23.103  0.2266E-03  0.8528E-05
    -23.089  0.3524E-03  0.1348E-04
    -23.075  0.5425E-03  0.2109E-04
    -23.061  0.8271E-03  0.3271E-04
    -23.047  0.1249E-02  0.5024E-04
    -23.033  0.1867E-02  0.7645E-04
    -23.019  0.2763E-02  0.1153E-03
    -23.005  0.4050E-02  0.1721E-03
    -22.991  0.5879E-02  0.2547E-03
    -22.977  0.8449E-02  0.3733E-03
    -22.963  0.1202E-01  0.5421E-03
    -22.949  0.1694E-01  0.7800E-03
    -22.935  0.2364E-01  0.1112E-02
    -22.921  0.3267E-01  0.1571E-02
    -22.906  0.4470E-01  0.2198E-02
    -22.892  0.6056E-01  0.3049E-02
    -22.878  0.8124E-01  0.4190E-02
    -22.864  0.1079E+00  0.5705E-02
    -22.850  0.1420E+00  0.7698E-02
    -22.836  0.1849E+00  0.1030E-01
    -22.822  0.2385E+00  0.1364E-01
    -22.808  0.3047E+00  0.1792E-01
    -22.794  0.3853E+00  0.2333E-01
    -22.780  0.4826E+00  0.3011E-01
    -22.766  0.5985E+00  0.3851E-01
    -22.752  0.7350E+00  0.4883E-01
    -22.738  0.8938E+00  0.6138E-01
    -22.724  0.1076E+01  0.7650E-01
    -22.710  0.1284E+01  0.9452E-01
    -22.696  0.1516E+01  0.1158E+00
    -22.682  0.1773E+01  0.1407E+00
    -22.668  0.2054E+01  0.1696E+00
    -22.654  0.2357E+01  0.2027E+00
    -22.640  0.2679E+01  0.2403E+00
    -22.626  0.3015E+01  0.2826E+00
    -22.612  0.3362E+01  0.3298E+00
    -22.598  0.3714E+01  0.3820E+00
    -22.584  0.4066E+01  0.4391E+00
    -22.569  0.4411E+01  0.5010E+00
    -22.555  0.4744E+01  0.5676E+00
    -22.541  0.5058E+01  0.6386E+00
    -22.527  0.5349E+01  0.7138E+00
    -22.513  0.5613E+01  0.7926E+00
    -22.499  0.5847E+01  0.8747E+00
    -22.485  0.6049E+01  0.9596E+00
    -22.471  0.6220E+01  0.1047E+01
    -22.457  0.6363E+01  0.1136E+01
    -22.443  0.6481E+01  0.1227E+01
    -22.429  0.6580E+01  0.1320E+01
    -22.415  0.6667E+01  0.1413E+01
    -22.401  0.6750E+01  0.1508E+01
    -22.387  0.6837E+01  0.1604E+01
    -22.373  0.6937E+01  0.1701E+01
    -22.359  0.7058E+01  0.1801E+01
    -22.345  0.7209E+01  0.1902E+01
    -22.331  0.7394E+01  0.2006E+01
    -22.317  0.7619E+01  0.2113E+01
    -22.303  0.7886E+01  0.2223E+01
    -22.289  0.8194E+01  0.2338E+01
    -22.275  0.8540E+01  0.2458E+01
    -22.261  0.8921E+01  0.2584E+01
    -22.247  0.9328E+01  0.2715E+01
    -22.232  0.9753E+01  0.2852E+01
    -22.218  0.1018E+02  0.2995E+01
    -22.204  0.1061E+02  0.3144E+01
    -22.190  0.1102E+02  0.3298E+01
    -22.176  0.1140E+02  0.3458E+01
    -22.162  0.1175E+02  0.3623E+01
    -22.148  0.1204E+02  0.3792E+01
    -22.134  0.1228E+02  0.3965E+01
    -22.120  0.1246E+02  0.4140E+01
    -22.106  0.1258E+02  0.4316E+01
    -22.092  0.1263E+02  0.4494E+01
    -22.078  0.1263E+02  0.4671E+01
    -22.064  0.1258E+02  0.4848E+01
    -22.050  0.1248E+02  0.5023E+01
    -22.036  0.1235E+02  0.5196E+01
    -22.022  0.1219E+02  0.5368E+01
    -22.008  0.1203E+02  0.5537E+01
    -21.994  0.1187E+02  0.5703E+01
    -21.980  0.1173E+02  0.5868E+01
    -21.966  0.1162E+02  0.6031E+01
    -21.952  0.1155E+02  0.6193E+01
    -21.938  0.1152E+02  0.6355E+01
    -21.924  0.1156E+02  0.6517E+01
    -21.910  0.1165E+02  0.6681E+01
    -21.895  0.1181E+02  0.6847E+01
    -21.881  0.1204E+02  0.7016E+01
    -21.867  0.1233E+02  0.7189E+01
    -21.853  0.1268E+02  0.7367E+01
    -21.839  0.1309E+02  0.7551E+01
    -21.825  0.1354E+02  0.7741E+01
    -21.811  0.1404E+02  0.7938E+01
    -21.797  0.1456E+02  0.8143E+01
    -21.783  0.1511E+02  0.8355E+01
    -21.769  0.1566E+02  0.8575E+01
    -21.755  0.1622E+02  0.8802E+01
    -21.741  0.1677E+02  0.9038E+01
    -21.727  0.1730E+02  0.9281E+01
    -21.713  0.1780E+02  0.9531E+01
    -21.699  0.1828E+02  0.9787E+01
    -21.685  0.1871E+02  0.1005E+02
    -21.671  0.1911E+02  0.1032E+02
    -21.657  0.1946E+02  0.1059E+02
    -21.643  0.1977E+02  0.1087E+02
    -21.629  0.2004E+02  0.1115E+02
    -21.615  0.2026E+02  0.1144E+02
    -21.601  0.2045E+02  0.1172E+02
    -21.587  0.2059E+02  0.1201E+02
    -21.573  0.2071E+02  0.1230E+02
    -21.558  0.2079E+02  0.1259E+02
    -21.544  0.2085E+02  0.1289E+02
    -21.530  0.2090E+02  0.1318E+02
    -21.516  0.2092E+02  0.1347E+02
    -21.502  0.2094E+02  0.1377E+02
    -21.488  0.2094E+02  0.1406E+02
    -21.474  0.2094E+02  0.1436E+02
    -21.460  0.2094E+02  0.1465E+02
    -21.446  0.2094E+02  0.1494E+02
    -21.432  0.2093E+02  0.1524E+02
    -21.418  0.2093E+02  0.1553E+02
    -21.404  0.2092E+02  0.1583E+02
    -21.390  0.2091E+02  0.1612E+02
    -21.376  0.2089E+02  0.1641E+02
    -21.362  0.2087E+02  0.1671E+02
    -21.348  0.2085E+02  0.1700E+02
    -21.334  0.2081E+02  0.1729E+02
    -21.320  0.2076E+02  0.1758E+02
    -21.306  0.2070E+02  0.1787E+02
    -21.292  0.2063E+02  0.1816E+02
    -21.278  0.2055E+02  0.1845E+02
    -21.264  0.2046E+02  0.1874E+02
    -21.250  0.2035E+02  0.1902E+02
    -21.236  0.2025E+02  0.1931E+02
    -21.222  0.2014E+02  0.1959E+02
    -21.207  0.2003E+02  0.1987E+02
    -21.193  0.1993E+02  0.2015E+02
    -21.179  0.1984E+02  0.2043E+02
    -21.165  0.1976E+02  0.2071E+02
    -21.151  0.1969E+02  0.2098E+02
    -21.137  0.1965E+02  0.2126E+02
    -21.123  0.1963E+02  0.2154E+02
    -21.109  0.1963E+02  0.2181E+02
    -21.095  0.1965E+02  0.2209E+02
    -21.081  0.1970E+02  0.2236E+02
    -21.067  0.1977E+02  0.2264E+02
    -21.053  0.1985E+02  0.2292E+02
    -21.039  0.1995E+02  0.2320E+02
    -21.025  0.2006E+02  0.2348E+02
    -21.011  0.2018E+02  0.2377E+02
    -20.997  0.2030E+02  0.2405E+02
    -20.983  0.2041E+02  0.2434E+02
    -20.969  0.2052E+02  0.2463E+02
    -20.955  0.2062E+02  0.2492E+02
    -20.941  0.2069E+02  0.2521E+02
    -20.927  0.2075E+02  0.2550E+02
    -20.913  0.2079E+02  0.2579E+02
    -20.899  0.2080E+02  0.2608E+02
    -20.885  0.2078E+02  0.2637E+02
    -20.870  0.2074E+02  0.2666E+02
    -20.856  0.2067E+02  0.2695E+02
    -20.842  0.2058E+02  0.2724E+02
    -20.828  0.2047E+02  0.2753E+02
    -20.814  0.2034E+02  0.2782E+02
    -20.800  0.2019E+02  0.2810E+02
    -20.786  0.2003E+02  0.2838E+02
    -20.772  0.1986E+02  0.2866E+02
    -20.758  0.1968E+02  0.2894E+02
    -20.744  0.1951E+02  0.2921E+02
    -20.730  0.1934E+02  0.2948E+02
    -20.716  0.1918E+02  0.2975E+02
    -20.702  0.1903E+02  0.3002E+02
    -20.688  0.1890E+02  0.3028E+02
    -20.674  0.1878E+02  0.3055E+02
    -20.660  0.1869E+02  0.3081E+02
    -20.646  0.1863E+02  0.3107E+02
    -20.632  0.1859E+02  0.3133E+02
    -20.618  0.1858E+02  0.3159E+02
    -20.604  0.1861E+02  0.3185E+02
    -20.590  0.1866E+02  0.3212E+02
    -20.576  0.1875E+02  0.3238E+02
    -20.562  0.1887E+02  0.3265E+02
    -20.548  0.1902E+02  0.3291E+02
    -20.533  0.1920E+02  0.3318E+02
    -20.519  0.1940E+02  0.3345E+02
    -20.505  0.1964E+02  0.3373E+02
    -20.491  0.1989E+02  0.3401E+02
    -20.477  0.2017E+02  0.3429E+02
    -20.463  0.2046E+02  0.3458E+02
    -20.449  0.2077E+02  0.3487E+02
    -20.435  0.2108E+02  0.3517E+02
    -20.421  0.2141E+02  0.3547E+02
    -20.407  0.2173E+02  0.3577E+02
    -20.393  0.2205E+02  0.3608E+02
    -20.379  0.2237E+02  0.3640E+02
    -20.365  0.2267E+02  0.3672E+02
    -20.351  0.2297E+02  0.3704E+02
    -20.337  0.2324E+02  0.3736E+02
    -20.323  0.2350E+02  0.3769E+02
    -20.309  0.2373E+02  0.3803E+02
    -20.295  0.2393E+02  0.3836E+02
    -20.281  0.2411E+02  0.3870E+02
    -20.267  0.2425E+02  0.3904E+02
    -20.253  0.2436E+02  0.3938E+02
    -20.239  0.2444E+02  0.3973E+02
    -20.225  0.2448E+02  0.4007E+02
    -20.211  0.2449E+02  0.4042E+02
    -20.196  0.2446E+02  0.4076E+02
    -20.182  0.2440E+02  0.4110E+02
    -20.168  0.2432E+02  0.4144E+02
    -20.154  0.2420E+02  0.4178E+02
    -20.140  0.2406E+02  0.4212E+02
    -20.126  0.2390E+02  0.4246E+02
    -20.112  0.2373E+02  0.4279E+02
    -20.098  0.2354E+02  0.4312E+02
    -20.084  0.2335E+02  0.4345E+02
    -20.070  0.2316E+02  0.4377E+02
    -20.056  0.2296E+02  0.4410E+02
    -20.042  0.2278E+02  0.4442E+02
    -20.028  0.2260E+02  0.4473E+02
    -20.014  0.2244E+02  0.4505E+02
    -20.000  0.2230E+02  0.4536E+02
    -19.986  0.2217E+02  0.4567E+02
    -19.972  0.2207E+02  0.4598E+02
    -19.958  0.2200E+02  0.4629E+02
    -19.944  0.2195E+02  0.4660E+02
    -19.930  0.2193E+02  0.4691E+02
    -19.916  0.2194E+02  0.4722E+02
    -19.902  0.2198E+02  0.4752E+02
    -19.888  0.2205E+02  0.4783E+02
    -19.874  0.2214E+02  0.4814E+02
    -19.859  0.2225E+02  0.4846E+02
    -19.845  0.2239E+02  0.4877E+02
    -19.831  0.2254E+02  0.4909E+02
    -19.817  0.2271E+02  0.4941E+02
    -19.803  0.2288E+02  0.4973E+02
    -19.789  0.2306E+02  0.5005E+02
    -19.775  0.2323E+02  0.5038E+02
    -19.761  0.2340E+02  0.5071E+02
    -19.747  0.2356E+02  0.5104E+02
    -19.733  0.2370E+02  0.5137E+02
    -19.719  0.2382E+02  0.5170E+02
    -19.705  0.2392E+02  0.5204E+02
    -19.691  0.2399E+02  0.5238E+02
    -19.677  0.2403E+02  0.5271E+02
    -19.663  0.2405E+02  0.5305E+02
    -19.649  0.2404E+02  0.5339E+02
    -19.635  0.2402E+02  0.5373E+02
    -19.621  0.2398E+02  0.5406E+02
    -19.607  0.2392E+02  0.5440E+02
    -19.593  0.2386E+02  0.5473E+02
    -19.579  0.2379E+02  0.5507E+02
    -19.565  0.2373E+02  0.5540E+02
    -19.551  0.2368E+02  0.5573E+02
    -19.537  0.2364E+02  0.5607E+02
    -19.522  0.2362E+02  0.5640E+02
    -19.508  0.2362E+02  0.5673E+02
    -19.494  0.2364E+02  0.5706E+02
    -19.480  0.2369E+02  0.5739E+02
    -19.466  0.2375E+02  0.5773E+02
    -19.452  0.2384E+02  0.5806E+02
    -19.438  0.2394E+02  0.5840E+02
    -19.424  0.2406E+02  0.5874E+02
    -19.410  0.2418E+02  0.5908E+02
    -19.396  0.2431E+02  0.5942E+02
    -19.382  0.2444E+02  0.5976E+02
    -19.368  0.2457E+02  0.6011E+02
    -19.354  0.2469E+02  0.6045E+02
    -19.340  0.2479E+02  0.6080E+02
    -19.326  0.2488E+02  0.6115E+02
    -19.312  0.2495E+02  0.6150E+02
    -19.298  0.2501E+02  0.6185E+02
    -19.284  0.2504E+02  0.6220E+02
    -19.270  0.2506E+02  0.6255E+02
    -19.256  0.2506E+02  0.6291E+02
    -19.242  0.2504E+02  0.6326E+02
    -19.228  0.2501E+02  0.6361E+02
    -19.214  0.2497E+02  0.6396E+02
    -19.200  0.2492E+02  0.6431E+02
    -19.185  0.2487E+02  0.6466E+02
    -19.171  0.2481E+02  0.6501E+02
    -19.157  0.2475E+02  0.6535E+02
    -19.143  0.2469E+02  0.6570E+02
    -19.129  0.2462E+02  0.6605E+02
    -19.115  0.2456E+02  0.6639E+02
    -19.101  0.2451E+02  0.6674E+02
    -19.087  0.2445E+02  0.6708E+02
    -19.073  0.2439E+02  0.6742E+02
    -19.059  0.2434E+02  0.6776E+02
    -19.045  0.2428E+02  0.6810E+02
    -19.031  0.2422E+02  0.6844E+02
    -19.017  0.2416E+02  0.6878E+02
    -19.003  0.2411E+02  0.6912E+02
    -18.989  0.2405E+02  0.6946E+02
    -18.975  0.2399E+02  0.6980E+02
    -18.961  0.2393E+02  0.7013E+02
    -18.947  0.2387E+02  0.7047E+02
    -18.933  0.2381E+02  0.7080E+02
    -18.919  0.2375E+02  0.7114E+02
    -18.905  0.2370E+02  0.7147E+02
    -18.891  0.2364E+02  0.7180E+02
    -18.877  0.2359E+02  0.7213E+02
    -18.863  0.2353E+02  0.7246E+02
    -18.848  0.2348E+02  0.7279E+02
    -18.834  0.2342E+02  0.7312E+02
    -18.820  0.2336E+02  0.7345E+02
    -18.806  0.2330E+02  0.7378E+02
    -18.792  0.2324E+02  0.7410E+02
    -18.778  0.2318E+02  0.7443E+02
    -18.764  0.2311E+02  0.7475E+02
    -18.750  0.2303E+02  0.7508E+02
    -18.736  0.2296E+02  0.7540E+02
    -18.722  0.2289E+02  0.7572E+02
    -18.708  0.2281E+02  0.7604E+02
    -18.694  0.2274E+02  0.7636E+02
    -18.680  0.2268E+02  0.7668E+02
    -18.666  0.2262E+02  0.7699E+02
    -18.652  0.2257E+02  0.7731E+02
    -18.638  0.2254E+02  0.7763E+02
    -18.624  0.2253E+02  0.7794E+02
    -18.610  0.2254E+02  0.7826E+02
    -18.596  0.2257E+02  0.7858E+02
    -18.582  0.2263E+02  0.7890E+02
    -18.568  0.2271E+02  0.7921E+02
    -18.554  0.2281E+02  0.7954E+02
    -18.540  0.2295E+02  0.7986E+02
    -18.526  0.2310E+02  0.8018E+02
    -18.511  0.2328E+02  0.8051E+02
    -18.497  0.2348E+02  0.8084E+02
    -18.483  0.2370E+02  0.8117E+02
    -18.469  0.2393E+02  0.8151E+02
    -18.455  0.2416E+02  0.8185E+02
    -18.441  0.2440E+02  0.8219E+02
    -18.427  0.2464E+02  0.8253E+02
    -18.413  0.2488E+02  0.8288E+02
    -18.399  0.2510E+02  0.8324E+02
    -18.385  0.2532E+02  0.8359E+02
    -18.371  0.2551E+02  0.8395E+02
    -18.357  0.2569E+02  0.8431E+02
    -18.343  0.2584E+02  0.8467E+02
    -18.329  0.2597E+02  0.8504E+02
    -18.315  0.2608E+02  0.8540E+02
    -18.301  0.2616E+02  0.8577E+02
    -18.287  0.2622E+02  0.8614E+02
    -18.273  0.2626E+02  0.8651E+02
    -18.259  0.2627E+02  0.8688E+02
    -18.245  0.2627E+02  0.8725E+02
    -18.231  0.2625E+02  0.8762E+02
    -18.217  0.2621E+02  0.8798E+02
    -18.203  0.2616E+02  0.8835E+02
    -18.189  0.2610E+02  0.8872E+02
    -18.175  0.2603E+02  0.8908E+02
    -18.160  0.2596E+02  0.8945E+02
    -18.146  0.2588E+02  0.8981E+02
    -18.132  0.2579E+02  0.9017E+02
    -18.118  0.2571E+02  0.9053E+02
    -18.104  0.2562E+02  0.9089E+02
    -18.090  0.2554E+02  0.9125E+02
    -18.076  0.2546E+02  0.9161E+02
    -18.062  0.2539E+02  0.9197E+02
    -18.048  0.2532E+02  0.9232E+02
    -18.034  0.2525E+02  0.9268E+02
    -18.020  0.2519E+02  0.9303E+02
    -18.006  0.2513E+02  0.9338E+02
    -17.992  0.2508E+02  0.9374E+02
    -17.978  0.2502E+02  0.9409E+02
    -17.964  0.2497E+02  0.9444E+02
    -17.950  0.2491E+02  0.9479E+02
    -17.936  0.2485E+02  0.9514E+02
    -17.922  0.2478E+02  0.9548E+02
    -17.908  0.2471E+02  0.9583E+02
    -17.894  0.2463E+02  0.9618E+02
    -17.880  0.2454E+02  0.9652E+02
    -17.866  0.2445E+02  0.9686E+02
    -17.852  0.2435E+02  0.9721E+02
    -17.838  0.2425E+02  0.9755E+02
    -17.823  0.2415E+02  0.9789E+02
    -17.809  0.2405E+02  0.9822E+02
    -17.795  0.2397E+02  0.9856E+02
    -17.781  0.2390E+02  0.9890E+02
    -17.767  0.2384E+02  0.9923E+02
    -17.753  0.2381E+02  0.9956E+02
    -17.739  0.2381E+02  0.9990E+02
    -17.725  0.2383E+02  0.1002E+03
    -17.711  0.2389E+02  0.1006E+03
    -17.697  0.2397E+02  0.1009E+03
    -17.683  0.2409E+02  0.1012E+03
    -17.669  0.2423E+02  0.1016E+03
    -17.655  0.2440E+02  0.1019E+03
    -17.641  0.2458E+02  0.1023E+03
    -17.627  0.2477E+02  0.1026E+03
    -17.613  0.2498E+02  0.1030E+03
    -17.599  0.2517E+02  0.1033E+03
    -17.585  0.2536E+02  0.1037E+03
    -17.571  0.2553E+02  0.1040E+03
    -17.557  0.2568E+02  0.1044E+03
    -17.543  0.2580E+02  0.1048E+03
    -17.529  0.2589E+02  0.1051E+03
    -17.515  0.2594E+02  0.1055E+03
    -17.501  0.2595E+02  0.1059E+03
    -17.486  0.2592E+02  0.1062E+03
    -17.472  0.2585E+02  0.1066E+03
    -17.458  0.2574E+02  0.1069E+03
    -17.444  0.2559E+02  0.1073E+03
    -17.430  0.2541E+02  0.1077E+03
    -17.416  0.2521E+02  0.1080E+03
    -17.402  0.2498E+02  0.1084E+03
    -17.388  0.2474E+02  0.1087E+03
    -17.374  0.2448E+02  0.1091E+03
    -17.360  0.2422E+02  0.1094E+03
    -17.346  0.2395E+02  0.1097E+03
    -17.332  0.2368E+02  0.1101E+03
    -17.318  0.2343E+02  0.1104E+03
    -17.304  0.2317E+02  0.1107E+03
    -17.290  0.2293E+02  0.1110E+03
    -17.276  0.2271E+02  0.1114E+03
    -17.262  0.2250E+02  0.1117E+03
    -17.248  0.2230E+02  0.1120E+03
    -17.234  0.2211E+02  0.1123E+03
    -17.220  0.2194E+02  0.1126E+03
    -17.206  0.2177E+02  0.1129E+03
    -17.192  0.2162E+02  0.1132E+03
    -17.178  0.2147E+02  0.1135E+03
    -17.164  0.2133E+02  0.1138E+03
    -17.149  0.2119E+02  0.1141E+03
    -17.135  0.2105E+02  0.1144E+03
    -17.121  0.2091E+02  0.1147E+03
    -17.107  0.2076E+02  0.1150E+03
    -17.093  0.2061E+02  0.1153E+03
    -17.079  0.2045E+02  0.1156E+03
    -17.065  0.2029E+02  0.1159E+03
    -17.051  0.2013E+02  0.1161E+03
    -17.037  0.1995E+02  0.1164E+03
    -17.023  0.1977E+02  0.1167E+03
    -17.009  0.1959E+02  0.1170E+03
    -16.995  0.1941E+02  0.1172E+03
    -16.981  0.1922E+02  0.1175E+03
    -16.967  0.1903E+02  0.1178E+03
    -16.953  0.1885E+02  0.1180E+03
    -16.939  0.1866E+02  0.1183E+03
    -16.925  0.1849E+02  0.1186E+03
    -16.911  0.1832E+02  0.1188E+03
    -16.897  0.1817E+02  0.1191E+03
    -16.883  0.1803E+02  0.1193E+03
    -16.869  0.1791E+02  0.1196E+03
    -16.855  0.1781E+02  0.1198E+03
    -16.841  0.1773E+02  0.1201E+03
    -16.827  0.1768E+02  0.1203E+03
    -16.812  0.1766E+02  0.1206E+03
    -16.798  0.1767E+02  0.1208E+03
    -16.784  0.1771E+02  0.1211E+03
    -16.770  0.1779E+02  0.1213E+03
    -16.756  0.1791E+02  0.1216E+03
    -16.742  0.1806E+02  0.1218E+03
    -16.728  0.1824E+02  0.1221E+03
    -16.714  0.1846E+02  0.1223E+03
    -16.700  0.1871E+02  0.1226E+03
    -16.686  0.1898E+02  0.1229E+03
    -16.672  0.1927E+02  0.1231E+03
    -16.658  0.1958E+02  0.1234E+03
    -16.644  0.1990E+02  0.1237E+03
    -16.630  0.2022E+02  0.1240E+03
    -16.616  0.2054E+02  0.1243E+03
    -16.602  0.2085E+02  0.1246E+03
    -16.588  0.2115E+02  0.1249E+03
    -16.574  0.2144E+02  0.1252E+03
    -16.560  0.2169E+02  0.1255E+03
    -16.546  0.2193E+02  0.1258E+03
    -16.532  0.2213E+02  0.1261E+03
    -16.518  0.2230E+02  0.1264E+03
    -16.504  0.2243E+02  0.1267E+03
    -16.490  0.2254E+02  0.1270E+03
    -16.475  0.2260E+02  0.1273E+03
    -16.461  0.2264E+02  0.1277E+03
    -16.447  0.2264E+02  0.1280E+03
    -16.433  0.2262E+02  0.1283E+03
    -16.419  0.2257E+02  0.1286E+03
    -16.405  0.2249E+02  0.1289E+03
    -16.391  0.2240E+02  0.1292E+03
    -16.377  0.2230E+02  0.1296E+03
    -16.363  0.2218E+02  0.1299E+03
    -16.349  0.2205E+02  0.1302E+03
    -16.335  0.2191E+02  0.1305E+03
    -16.321  0.2178E+02  0.1308E+03
    -16.307  0.2164E+02  0.1311E+03
    -16.293  0.2151E+02  0.1314E+03
    -16.279  0.2138E+02  0.1317E+03
    -16.265  0.2125E+02  0.1320E+03
    -16.251  0.2113E+02  0.1323E+03
    -16.237  0.2102E+02  0.1326E+03
    -16.223  0.2091E+02  0.1329E+03
    -16.209  0.2080E+02  0.1332E+03
    -16.195  0.2070E+02  0.1335E+03
    -16.181  0.2060E+02  0.1338E+03
    -16.167  0.2050E+02  0.1340E+03
    -16.153  0.2040E+02  0.1343E+03
    -16.138  0.2030E+02  0.1346E+03
    -16.124  0.2019E+02  0.1349E+03
    -16.110  0.2008E+02  0.1352E+03
    -16.096  0.1997E+02  0.1355E+03
    -16.082  0.1986E+02  0.1357E+03
    -16.068  0.1974E+02  0.1360E+03
    -16.054  0.1962E+02  0.1363E+03
    -16.040  0.1950E+02  0.1366E+03
    -16.026  0.1939E+02  0.1368E+03
    -16.012  0.1927E+02  0.1371E+03
    -15.998  0.1917E+02  0.1374E+03
    -15.984  0.1908E+02  0.1376E+03
    -15.970  0.1900E+02  0.1379E+03
    -15.956  0.1894E+02  0.1382E+03
    -15.942  0.1890E+02  0.1384E+03
    -15.928  0.1889E+02  0.1387E+03
    -15.914  0.1890E+02  0.1390E+03
    -15.900  0.1894E+02  0.1392E+03
    -15.886  0.1900E+02  0.1395E+03
    -15.872  0.1909E+02  0.1398E+03
    -15.858  0.1920E+02  0.1400E+03
    -15.844  0.1934E+02  0.1403E+03
    -15.830  0.1950E+02  0.1406E+03
    -15.816  0.1968E+02  0.1409E+03
    -15.801  0.1988E+02  0.1411E+03
    -15.787  0.2009E+02  0.1414E+03
    -15.773  0.2031E+02  0.1417E+03
    -15.759  0.2054E+02  0.1420E+03
    -15.745  0.2078E+02  0.1423E+03
    -15.731  0.2101E+02  0.1426E+03
    -15.717  0.2124E+02  0.1429E+03
    -15.703  0.2147E+02  0.1432E+03
    -15.689  0.2170E+02  0.1435E+03
    -15.675  0.2192E+02  0.1438E+03
    -15.661  0.2213E+02  0.1441E+03
    -15.647  0.2233E+02  0.1444E+03
    -15.633  0.2253E+02  0.1447E+03
    -15.619  0.2271E+02  0.1451E+03
    -15.605  0.2288E+02  0.1454E+03
    -15.591  0.2305E+02  0.1457E+03
    -15.577  0.2320E+02  0.1460E+03
    -15.563  0.2335E+02  0.1464E+03
    -15.549  0.2348E+02  0.1467E+03
    -15.535  0.2361E+02  0.1470E+03
    -15.521  0.2373E+02  0.1474E+03
    -15.507  0.2384E+02  0.1477E+03
    -15.493  0.2395E+02  0.1480E+03
    -15.479  0.2405E+02  0.1484E+03
    -15.464  0.2415E+02  0.1487E+03
    -15.450  0.2424E+02  0.1490E+03
    -15.436  0.2434E+02  0.1494E+03
    -15.422  0.2443E+02  0.1497E+03
    -15.408  0.2452E+02  0.1501E+03
    -15.394  0.2462E+02  0.1504E+03
    -15.380  0.2472E+02  0.1508E+03
    -15.366  0.2483E+02  0.1511E+03
    -15.352  0.2495E+02  0.1515E+03
    -15.338  0.2508E+02  0.1518E+03
    -15.324  0.2522E+02  0.1522E+03
    -15.310  0.2537E+02  0.1525E+03
    -15.296  0.2554E+02  0.1529E+03
    -15.282  0.2573E+02  0.1532E+03
    -15.268  0.2593E+02  0.1536E+03
    -15.254  0.2615E+02  0.1540E+03
    -15.240  0.2638E+02  0.1543E+03
    -15.226  0.2663E+02  0.1547E+03
    -15.212  0.2689E+02  0.1551E+03
    -15.198  0.2716E+02  0.1555E+03
    -15.184  0.2743E+02  0.1559E+03
    -15.170  0.2770E+02  0.1563E+03
    -15.156  0.2797E+02  0.1566E+03
    -15.142  0.2822E+02  0.1570E+03
    -15.127  0.2847E+02  0.1574E+03
    -15.113  0.2869E+02  0.1578E+03
    -15.099  0.2888E+02  0.1583E+03
    -15.085  0.2905E+02  0.1587E+03
    -15.071  0.2918E+02  0.1591E+03
    -15.057  0.2928E+02  0.1595E+03
    -15.043  0.2933E+02  0.1599E+03
    -15.029  0.2934E+02  0.1603E+03
    -15.015  0.2931E+02  0.1607E+03
    -15.001  0.2924E+02  0.1611E+03
    -14.987  0.2912E+02  0.1615E+03
    -14.973  0.2897E+02  0.1619E+03
    -14.959  0.2878E+02  0.1623E+03
    -14.945  0.2856E+02  0.1627E+03
    -14.931  0.2831E+02  0.1631E+03
    -14.917  0.2805E+02  0.1635E+03
    -14.903  0.2776E+02  0.1639E+03
    -14.889  0.2747E+02  0.1643E+03
    -14.875  0.2717E+02  0.1647E+03
    -14.861  0.2688E+02  0.1651E+03
    -14.847  0.2658E+02  0.1654E+03
    -14.833  0.2630E+02  0.1658E+03
    -14.819  0.2604E+02  0.1662E+03
    -14.805  0.2579E+02  0.1665E+03
    -14.791  0.2555E+02  0.1669E+03
    -14.776  0.2534E+02  0.1673E+03
    -14.762  0.2515E+02  0.1676E+03
    -14.748  0.2498E+02  0.1680E+03
    -14.734  0.2483E+02  0.1683E+03
    -14.720  0.2470E+02  0.1687E+03
    -14.706  0.2458E+02  0.1690E+03
    -14.692  0.2449E+02  0.1693E+03
    -14.678  0.2441E+02  0.1697E+03
    -14.664  0.2434E+02  0.1700E+03
    -14.650  0.2429E+02  0.1704E+03
    -14.636  0.2425E+02  0.1707E+03
    -14.622  0.2422E+02  0.1711E+03
    -14.608  0.2420E+02  0.1714E+03
    -14.594  0.2419E+02  0.1717E+03
    -14.580  0.2419E+02  0.1721E+03
    -14.566  0.2419E+02  0.1724E+03
    -14.552  0.2419E+02  0.1728E+03
    -14.538  0.2420E+02  0.1731E+03
    -14.524  0.2420E+02  0.1734E+03
    -14.510  0.2419E+02  0.1738E+03
    -14.496  0.2417E+02  0.1741E+03
    -14.482  0.2414E+02  0.1744E+03
    -14.468  0.2408E+02  0.1748E+03
    -14.454  0.2401E+02  0.1751E+03
    -14.439  0.2391E+02  0.1755E+03
    -14.425  0.2378E+02  0.1758E+03
    -14.411  0.2361E+02  0.1761E+03
    -14.397  0.2342E+02  0.1765E+03
    -14.383  0.2319E+02  0.1768E+03
    -14.369  0.2293E+02  0.1771E+03
    -14.355  0.2265E+02  0.1774E+03
    -14.341  0.2234E+02  0.1777E+03
    -14.327  0.2202E+02  0.1780E+03
    -14.313  0.2168E+02  0.1783E+03
    -14.299  0.2134E+02  0.1786E+03
    -14.285  0.2101E+02  0.1789E+03
    -14.271  0.2069E+02  0.1792E+03
    -14.257  0.2039E+02  0.1795E+03
    -14.243  0.2013E+02  0.1798E+03
    -14.229  0.1989E+02  0.1801E+03
    -14.215  0.1970E+02  0.1804E+03
    -14.201  0.1956E+02  0.1806E+03
    -14.187  0.1947E+02  0.1809E+03
    -14.173  0.1943E+02  0.1812E+03
    -14.159  0.1944E+02  0.1815E+03
    -14.145  0.1951E+02  0.1817E+03
    -14.131  0.1962E+02  0.1820E+03
    -14.117  0.1978E+02  0.1823E+03
    -14.102  0.1998E+02  0.1826E+03
    -14.088  0.2022E+02  0.1828E+03
    -14.074  0.2048E+02  0.1831E+03
    -14.060  0.2077E+02  0.1834E+03
    -14.046  0.2107E+02  0.1837E+03
    -14.032  0.2139E+02  0.1840E+03
    -14.018  0.2170E+02  0.1843E+03
    -14.004  0.2203E+02  0.1846E+03
    -13.990  0.2234E+02  0.1849E+03
    -13.976  0.2265E+02  0.1853E+03
    -13.962  0.2294E+02  0.1856E+03
    -13.948  0.2323E+02  0.1859E+03
    -13.934  0.2349E+02  0.1862E+03
    -13.920  0.2373E+02  0.1866E+03
    -13.906  0.2395E+02  0.1869E+03
    -13.892  0.2414E+02  0.1873E+03
    -13.878  0.2431E+02  0.1876E+03
    -13.864  0.2444E+02  0.1879E+03
    -13.850  0.2454E+02  0.1883E+03
    -13.836  0.2461E+02  0.1886E+03
    -13.822  0.2465E+02  0.1890E+03
    -13.808  0.2465E+02  0.1893E+03
    -13.794  0.2461E+02  0.1897E+03
    -13.780  0.2454E+02  0.1900E+03
    -13.765  0.2443E+02  0.1904E+03
    -13.751  0.2430E+02  0.1907E+03
    -13.737  0.2413E+02  0.1910E+03
    -13.723  0.2395E+02  0.1914E+03
    -13.709  0.2374E+02  0.1917E+03
    -13.695  0.2352E+02  0.1920E+03
    -13.681  0.2329E+02  0.1924E+03
    -13.667  0.2305E+02  0.1927E+03
    -13.653  0.2281E+02  0.1930E+03
    -13.639  0.2258E+02  0.1933E+03
    -13.625  0.2237E+02  0.1936E+03
    -13.611  0.2216E+02  0.1939E+03
    -13.597  0.2198E+02  0.1943E+03
    -13.583  0.2182E+02  0.1946E+03
    -13.569  0.2168E+02  0.1949E+03
    -13.555  0.2157E+02  0.1952E+03
    -13.541  0.2148E+02  0.1955E+03
    -13.527  0.2142E+02  0.1958E+03
    -13.513  0.2138E+02  0.1961E+03
    -13.499  0.2137E+02  0.1964E+03
    -13.485  0.2138E+02  0.1967E+03
    -13.471  0.2141E+02  0.1970E+03
    -13.457  0.2145E+02  0.1973E+03
    -13.443  0.2150E+02  0.1976E+03
    -13.428  0.2156E+02  0.1979E+03
    -13.414  0.2163E+02  0.1982E+03
    -13.400  0.2170E+02  0.1985E+03
    -13.386  0.2176E+02  0.1988E+03
    -13.372  0.2182E+02  0.1991E+03
    -13.358  0.2188E+02  0.1994E+03
    -13.344  0.2193E+02  0.1997E+03
    -13.330  0.2197E+02  0.2000E+03
    -13.316  0.2201E+02  0.2003E+03
    -13.302  0.2204E+02  0.2006E+03
    -13.288  0.2206E+02  0.2009E+03
    -13.274  0.2208E+02  0.2013E+03
    -13.260  0.2210E+02  0.2016E+03
    -13.246  0.2213E+02  0.2019E+03
    -13.232  0.2217E+02  0.2022E+03
    -13.218  0.2222E+02  0.2025E+03
    -13.204  0.2228E+02  0.2028E+03
    -13.190  0.2236E+02  0.2031E+03
    -13.176  0.2247E+02  0.2034E+03
    -13.162  0.2259E+02  0.2038E+03
    -13.148  0.2275E+02  0.2041E+03
    -13.134  0.2292E+02  0.2044E+03
    -13.120  0.2313E+02  0.2047E+03
    -13.106  0.2335E+02  0.2051E+03
    -13.091  0.2360E+02  0.2054E+03
    -13.077  0.2386E+02  0.2057E+03
    -13.063  0.2414E+02  0.2061E+03
    -13.049  0.2443E+02  0.2064E+03
    -13.035  0.2472E+02  0.2068E+03
    -13.021  0.2502E+02  0.2071E+03
    -13.007  0.2531E+02  0.2075E+03
    -12.993  0.2559E+02  0.2078E+03
    -12.979  0.2585E+02  0.2082E+03
    -12.965  0.2611E+02  0.2085E+03
    -12.951  0.2634E+02  0.2089E+03
    -12.937  0.2655E+02  0.2093E+03
    -12.923  0.2674E+02  0.2097E+03
    -12.909  0.2692E+02  0.2100E+03
    -12.895  0.2707E+02  0.2104E+03