 191 191   0   0
  0.4902549E+02  0.2466174E-08  0.1898461E-08  0.2000000E-08  0.5000000E-15
  1.000000000000000E-004
  CAR 
 unknown system                          
      3.54279326    -24.21177564 2000     -3.48034516      1.00000000
    -24.212  0.0000E+00  0.0000E+00
    -24.198  0.0000E+00  0.0000E+00
    -24.184  0.0000E+00  0.0000E+00
    -24.170  0.0000E+00  0.0000E+00
    -24.156  0.0000E+00  0.0000E+00
    -24.142  0.0000E+00  0.0000E+00
    -24.128  0.0000E+00  0.0000E+00
    -24.115  0.0000E+00  0.0000E+00
    -24.101  0.0000E+00  0.0000E+00
    -24.087  0.0000E+00  0.0000E+00
    -24.073  0.0000E+00  0.0000E+00
    -24.059  0.0000E+00  0.0000E+00
    -24.045  0.0000E+00  0.0000E+00
    -24.031  0.0000E+00  0.0000E+00
    -24.017  0.0000E+00  0.0000E+00
    -24.004  0.0000E+00  0.0000E+00
    -23.990  0.0000E+00  0.0000E+00
    -23.976  0.0000E+00  0.0000E+00
    -23.962  0.0000E+00  0.0000E+00
    -23.948  0.0000E+00  0.0000E+00
    -23.934  0.0000E+00  0.0000E+00
    -23.920  0.0000E+00  0.0000E+00
    -23.906  0.0000E+00  0.0000E+00
    -23.892  0.0000E+00  0.0000E+00
    -23.879  0.0000E+00  0.0000E+00
    -23.865  0.0000E+00  0.0000E+00
    -23.851  0.0000E+00  0.0000E+00
    -23.837  0.0000E+00  0.0000E+00
    -23.823  0.0000E+00  0.0000E+00
    -23.809  0.0000E+00  0.0000E+00
    -23.795  0.0000E+00  0.0000E+00
    -23.781  0.0000E+00  0.0000E+00
    -23.767  0.0000E+00  0.0000E+00
    -23.754  0.0000E+00  0.0000E+00
    -23.740  0.0000E+00  0.0000E+00
    -23.726  0.0000E+00  0.0000E+00
    -23.712  0.0000E+00  0.0000E+00
    -23.698  0.0000E+00  0.0000E+00
    -23.684  0.0000E+00  0.0000E+00
    -23.670  0.0000E+00  0.0000E+00
    -23.656  0.0000E+00  0.0000E+00
    -23.643  0.0000E+00  0.0000E+00
    -23.629  0.0000E+00  0.0000E+00
    -23.615  0.0000E+00  0.0000E+00
    -23.601  0.0000E+00  0.0000E+00
    -23.587  0.0000E+00  0.0000E+00
    -23.573  0.0000E+00  0.0000E+00
    -23.559  0.0000E+00  0.0000E+00
    -23.545  0.0000E+00  0.0000E+00
    -23.531  0.0000E+00  0.0000E+00
    -23.518  0.0000E+00  0.0000E+00
    -23.504  0.0000E+00  0.0000E+00
    -23.490  0.0000E+00  0.0000E+00
    -23.476  0.0000E+00  0.0000E+00
    -23.462  0.0000E+00  0.0000E+00
    -23.448  0.0000E+00  0.0000E+00
    -23.434  0.0000E+00  0.0000E+00
    -23.420  0.0000E+00  0.0000E+00
    -23.406  0.0000E+00  0.0000E+00
    -23.393  0.8885E-15  0.1234E-16
    -23.379  0.7108E-14  0.1110E-15
    -23.365  0.8885E-14  0.2344E-15
    -23.351  0.2310E-13  0.5551E-15
    -23.337  0.5153E-13  0.1271E-14
    -23.323  0.1057E-12  0.2739E-14
    -23.309  0.2443E-12  0.6131E-14
    -23.295  0.5144E-12  0.1327E-13
    -23.282  0.1115E-11  0.2875E-13
    -23.268  0.2350E-11  0.6138E-13
    -23.254  0.4924E-11  0.1297E-12
    -23.240  0.1022E-10  0.2716E-12
    -23.226  0.2102E-10  0.5635E-12
    -23.212  0.4281E-10  0.1158E-11
    -23.198  0.8638E-10  0.2357E-11
    -23.184  0.1726E-09  0.4754E-11
    -23.170  0.3417E-09  0.9498E-11
    -23.157  0.6699E-09  0.1880E-10
    -23.143  0.1301E-08  0.3687E-10
    -23.129  0.2503E-08  0.7162E-10
    -23.115  0.4770E-08  0.1378E-09
    -23.101  0.9003E-08  0.2629E-09
    -23.087  0.1683E-07  0.4966E-09
    -23.073  0.3118E-07  0.9294E-09
    -23.059  0.5719E-07  0.1724E-08
    -23.046  0.1039E-06  0.3167E-08
    -23.032  0.1871E-06  0.5764E-08
    -23.018  0.3336E-06  0.1040E-07
    -23.004  0.5892E-06  0.1858E-07
    -22.990  0.1031E-05  0.3289E-07
    -22.976  0.1787E-05  0.5770E-07
    -22.962  0.3067E-05  0.1003E-06
    -22.948  0.5217E-05  0.1727E-06
    -22.934  0.8788E-05  0.2947E-06
    -22.921  0.1467E-04  0.4984E-06
    -22.907  0.2425E-04  0.8350E-06
    -22.893  0.3971E-04  0.1386E-05
    -22.879  0.6441E-04  0.2281E-05
    -22.865  0.1035E-03  0.3718E-05
    -22.851  0.1648E-03  0.6006E-05
    -22.837  0.2599E-03  0.9615E-05
    -22.823  0.4061E-03  0.1525E-04
    -22.809  0.6286E-03  0.2398E-04
    -22.796  0.9638E-03  0.3736E-04
    -22.782  0.1464E-02  0.5769E-04
    -22.768  0.2203E-02  0.8828E-04
    -22.754  0.3285E-02  0.1339E-03
    -22.740  0.4852E-02  0.2012E-03
    -22.726  0.7100E-02  0.2998E-03
    -22.712  0.1029E-01  0.4427E-03
    -22.698  0.1478E-01  0.6480E-03
    -22.685  0.2104E-01  0.9401E-03
    -22.671  0.2966E-01  0.1352E-02
    -22.657  0.4143E-01  0.1927E-02
    -22.643  0.5733E-01  0.2723E-02
    -22.629  0.7861E-01  0.3815E-02
    -22.615  0.1068E+00  0.5297E-02
    -22.601  0.1438E+00  0.7294E-02
    -22.587  0.1918E+00  0.9956E-02
    -22.573  0.2534E+00  0.1347E-01
    -22.560  0.3318E+00  0.1808E-01
    -22.546  0.4305E+00  0.2406E-01
    -22.532  0.5535E+00  0.3174E-01
    -22.518  0.7052E+00  0.4154E-01
    -22.504  0.8903E+00  0.5390E-01
    -22.490  0.1114E+01  0.6936E-01
    -22.476  0.1381E+01  0.8853E-01
    -22.462  0.1696E+01  0.1121E+00
    -22.448  0.2065E+01  0.1407E+00
    -22.435  0.2491E+01  0.1753E+00
    -22.421  0.2979E+01  0.2167E+00
    -22.407  0.3530E+01  0.2657E+00
    -22.393  0.4145E+01  0.3232E+00
    -22.379  0.4825E+01  0.3902E+00
    -22.365  0.5567E+01  0.4675E+00
    -22.351  0.6366E+01  0.5559E+00
    -22.337  0.7217E+01  0.6561E+00
    -22.324  0.8109E+01  0.7687E+00
    -22.310  0.9034E+01  0.8941E+00
    -22.296  0.9977E+01  0.1033E+01
    -22.282  0.1093E+02  0.1184E+01
    -22.268  0.1186E+02  0.1349E+01
    -22.254  0.1278E+02  0.1526E+01
    -22.240  0.1365E+02  0.1716E+01
    -22.226  0.1446E+02  0.1917E+01
    -22.212  0.1520E+02  0.2128E+01
    -22.199  0.1586E+02  0.2348E+01
    -22.185  0.1643E+02  0.2576E+01
    -22.171  0.1691E+02  0.2811E+01
    -22.157  0.1728E+02  0.3051E+01
    -22.143  0.1756E+02  0.3295E+01
    -22.129  0.1774E+02  0.3541E+01
    -22.115  0.1784E+02  0.3789E+01
    -22.101  0.1787E+02  0.4037E+01
    -22.087  0.1784E+02  0.4285E+01
    -22.074  0.1777E+02  0.4531E+01
    -22.060  0.1768E+02  0.4777E+01
    -22.046  0.1759E+02  0.5021E+01
    -22.032  0.1750E+02  0.5264E+01
    -22.018  0.1745E+02  0.5506E+01
    -22.004  0.1744E+02  0.5749E+01
    -21.990  0.1749E+02  0.5991E+01
    -21.976  0.1759E+02  0.6236E+01
    -21.963  0.1777E+02  0.6482E+01
    -21.949  0.1801E+02  0.6732E+01
    -21.935  0.1831E+02  0.6986E+01
    -21.921  0.1867E+02  0.7246E+01
    -21.907  0.1907E+02  0.7511E+01
    -21.893  0.1951E+02  0.7781E+01
    -21.879  0.1997E+02  0.8059E+01
    -21.865  0.2044E+02  0.8343E+01
    -21.851  0.2090E+02  0.8633E+01
    -21.838  0.2134E+02  0.8929E+01
    -21.824  0.2174E+02  0.9231E+01
    -21.810  0.2210E+02  0.9538E+01
    -21.796  0.2241E+02  0.9849E+01
    -21.782  0.2267E+02  0.1016E+02
    -21.768  0.2287E+02  0.1048E+02
    -21.754  0.2303E+02  0.1080E+02
    -21.740  0.2313E+02  0.1112E+02
    -21.726  0.2319E+02  0.1144E+02
    -21.713  0.2323E+02  0.1177E+02
    -21.699  0.2325E+02  0.1209E+02
    -21.685  0.2327E+02  0.1241E+02
    -21.671  0.2329E+02  0.1274E+02
    -21.657  0.2333E+02  0.1306E+02
    -21.643  0.2340E+02  0.1338E+02
    -21.629  0.2352E+02  0.1371E+02
    -21.615  0.2368E+02  0.1404E+02
    -21.602  0.2389E+02  0.1437E+02
    -21.588  0.2416E+02  0.1471E+02
    -21.574  0.2448E+02  0.1505E+02
    -21.560  0.2485E+02  0.1539E+02
    -21.546  0.2527E+02  0.1574E+02
    -21.532  0.2573E+02  0.1610E+02
    -21.518  0.2621E+02  0.1646E+02
    -21.504  0.2670E+02  0.1683E+02
    -21.490  0.2721E+02  0.1721E+02
    -21.477  0.2770E+02  0.1760E+02
    -21.463  0.2818E+02  0.1799E+02
    -21.449  0.2862E+02  0.1839E+02
    -21.435  0.2903E+02  0.1879E+02
    -21.421  0.2938E+02  0.1920E+02
    -21.407  0.2968E+02  0.1961E+02
    -21.393  0.2992E+02  0.2002E+02
    -21.379  0.3010E+02  0.2044E+02
    -21.366  0.3021E+02  0.2086E+02
    -21.352  0.3026E+02  0.2128E+02
    -21.338  0.3024E+02  0.2170E+02
    -21.324  0.3018E+02  0.2212E+02
    -21.310  0.3006E+02  0.2254E+02
    -21.296  0.2990E+02  0.2295E+02
    -21.282  0.2971E+02  0.2337E+02
    -21.268  0.2950E+02  0.2378E+02
    -21.254  0.2926E+02  0.2418E+02
    -21.241  0.2902E+02  0.2458E+02
    -21.227  0.2878E+02  0.2498E+02
    -21.213  0.2854E+02  0.2538E+02
    -21.199  0.2831E+02  0.2577E+02
    -21.185  0.2811E+02  0.2616E+02
    -21.171  0.2792E+02  0.2655E+02
    -21.157  0.2775E+02  0.2694E+02
    -21.143  0.2760E+02  0.2732E+02
    -21.129  0.2747E+02  0.2770E+02
    -21.116  0.2736E+02  0.2808E+02
    -21.102  0.2727E+02  0.2846E+02
    -21.088  0.2720E+02  0.2884E+02
    -21.074  0.2713E+02  0.2921E+02
    -21.060  0.2708E+02  0.2959E+02
    -21.046  0.2703E+02  0.2997E+02
    -21.032  0.2699E+02  0.3034E+02
    -21.018  0.2695E+02  0.3071E+02
    -21.005  0.2692E+02  0.3109E+02
    -20.991  0.2689E+02  0.3146E+02
    -20.977  0.2687E+02  0.3183E+02
    -20.963  0.2685E+02  0.3221E+02
    -20.949  0.2685E+02  0.3258E+02
    -20.935  0.2685E+02  0.3295E+02
    -20.921  0.2686E+02  0.3333E+02
    -20.907  0.2689E+02  0.3370E+02
    -20.893  0.2693E+02  0.3407E+02
    -20.880  0.2699E+02  0.3445E+02
    -20.866  0.2705E+02  0.3482E+02
    -20.852  0.2713E+02  0.3520E+02
    -20.838  0.2722E+02  0.3558E+02
    -20.824  0.2731E+02  0.3596E+02
    -20.810  0.2741E+02  0.3634E+02
    -20.796  0.2750E+02  0.3672E+02
    -20.782  0.2760E+02  0.3710E+02
    -20.768  0.2770E+02  0.3749E+02
    -20.755  0.2778E+02  0.3787E+02
    -20.741  0.2787E+02  0.3826E+02
    -20.727  0.2794E+02  0.3865E+02
    -20.713  0.2801E+02  0.3904E+02
    -20.699  0.2807E+02  0.3943E+02
    -20.685  0.2813E+02  0.3982E+02
    -20.671  0.2818E+02  0.4021E+02
    -20.657  0.2824E+02  0.4060E+02
    -20.644  0.2830E+02  0.4099E+02
    -20.630  0.2835E+02  0.4139E+02
    -20.616  0.2842E+02  0.4178E+02
    -20.602  0.2849E+02  0.4218E+02
    -20.588  0.2857E+02  0.4257E+02
    -20.574  0.2865E+02  0.4297E+02
    -20.560  0.2874E+02  0.4337E+02
    -20.546  0.2884E+02  0.4377E+02
    -20.532  0.2895E+02  0.4417E+02
    -20.519  0.2905E+02  0.4458E+02
    -20.505  0.2916E+02  0.4498E+02
    -20.491  0.2927E+02  0.4539E+02
    -20.477  0.2938E+02  0.4580E+02
    -20.463  0.2948E+02  0.4620E+02
    -20.449  0.2958E+02  0.4662E+02
    -20.435  0.2968E+02  0.4703E+02
    -20.421  0.2976E+02  0.4744E+02
    -20.407  0.2984E+02  0.4786E+02
    -20.394  0.2991E+02  0.4827E+02
    -20.380  0.2997E+02  0.4869E+02
    -20.366  0.3002E+02  0.4910E+02
    -20.352  0.3006E+02  0.4952E+02
    -20.338  0.3009E+02  0.4994E+02
    -20.324  0.3011E+02  0.5036E+02
    -20.310  0.3012E+02  0.5077E+02
    -20.296  0.3011E+02  0.5119E+02
    -20.283  0.3010E+02  0.5161E+02
    -20.269  0.3007E+02  0.5203E+02
    -20.255  0.3003E+02  0.5245E+02
    -20.241  0.2997E+02  0.5286E+02
    -20.227  0.2990E+02  0.5328E+02
    -20.213  0.2981E+02  0.5369E+02
    -20.199  0.2971E+02  0.5410E+02
    -20.185  0.2959E+02  0.5451E+02
    -20.171  0.2945E+02  0.5492E+02
    -20.158  0.2930E+02  0.5533E+02
    -20.144  0.2914E+02  0.5573E+02
    -20.130  0.2896E+02  0.5614E+02
    -20.116  0.2877E+02  0.5654E+02
    -20.102  0.2858E+02  0.5693E+02
    -20.088  0.2839E+02  0.5733E+02
    -20.074  0.2819E+02  0.5772E+02
    -20.060  0.2801E+02  0.5811E+02
    -20.047  0.2783E+02  0.5849E+02
    -20.033  0.2766E+02  0.5888E+02
    -20.019  0.2752E+02  0.5926E+02
    -20.005  0.2740E+02  0.5964E+02
    -19.991  0.2731E+02  0.6002E+02
    -19.977  0.2725E+02  0.6040E+02
    -19.963  0.2722E+02  0.6077E+02
    -19.949  0.2723E+02  0.6115E+02
    -19.935  0.2727E+02  0.6153E+02
    -19.922  0.2735E+02  0.6191E+02
    -19.908  0.2746E+02  0.6229E+02
    -19.894  0.2760E+02  0.6268E+02
    -19.880  0.2777E+02  0.6306E+02
    -19.866  0.2796E+02  0.6345E+02
    -19.852  0.2817E+02  0.6384E+02
    -19.838  0.2840E+02  0.6424E+02
    -19.824  0.2863E+02  0.6463E+02
    -19.810  0.2886E+02  0.6503E+02
    -19.797  0.2908E+02  0.6544E+02
    -19.783  0.2930E+02  0.6584E+02
    -19.769  0.2950E+02  0.6625E+02
    -19.755  0.2968E+02  0.6667E+02
    -19.741  0.2983E+02  0.6708E+02
    -19.727  0.2997E+02  0.6750E+02
    -19.713  0.3007E+02  0.6791E+02
    -19.699  0.3016E+02  0.6833E+02
    -19.686  0.3021E+02  0.6875E+02
    -19.672  0.3024E+02  0.6917E+02
    -19.658  0.3025E+02  0.6959E+02
    -19.644  0.3024E+02  0.7001E+02
    -19.630  0.3021E+02  0.7043E+02
    -19.616  0.3017E+02  0.7085E+02
    -19.602  0.3012E+02  0.7127E+02
    -19.588  0.3007E+02  0.7169E+02
    -19.574  0.3001E+02  0.7210E+02
    -19.561  0.2995E+02  0.7252E+02
    -19.547  0.2991E+02  0.7293E+02
    -19.533  0.2987E+02  0.7335E+02
    -19.519  0.2984E+02  0.7376E+02
    -19.505  0.2983E+02  0.7418E+02
    -19.491  0.2984E+02  0.7459E+02
    -19.477  0.2987E+02  0.7501E+02
    -19.463  0.2993E+02  0.7542E+02
    -19.449  0.3000E+02  0.7584E+02
    -19.436  0.3011E+02  0.7626E+02
    -19.422  0.3023E+02  0.7667E+02
    -19.408  0.3038E+02  0.7710E+02
    -19.394  0.3055E+02  0.7752E+02
    -19.380  0.3074E+02  0.7795E+02
    -19.366  0.3095E+02  0.7838E+02
    -19.352  0.3117E+02  0.7881E+02
    -19.338  0.3139E+02  0.7925E+02
    -19.325  0.3162E+02  0.7969E+02
    -19.311  0.3184E+02  0.8013E+02
    -19.297  0.3205E+02  0.8057E+02
    -19.283  0.3225E+02  0.8102E+02
    -19.269  0.3243E+02  0.8147E+02
    -19.255  0.3258E+02  0.8192E+02
    -19.241  0.3270E+02  0.8238E+02
    -19.227  0.3278E+02  0.8283E+02
    -19.213  0.3283E+02  0.8329E+02
    -19.200  0.3285E+02  0.8374E+02
    -19.186  0.3282E+02  0.8420E+02
    -19.172  0.3276E+02  0.8465E+02
    -19.158  0.3266E+02  0.8511E+02
    -19.144  0.3252E+02  0.8556E+02
    -19.130  0.3236E+02  0.8601E+02
    -19.116  0.3217E+02  0.8646E+02
    -19.102  0.3197E+02  0.8690E+02
    -19.088  0.3175E+02  0.8734E+02
    -19.075  0.3152E+02  0.8778E+02
    -19.061  0.3130E+02  0.8821E+02
    -19.047  0.3108E+02  0.8864E+02
    -19.033  0.3087E+02  0.8907E+02
    -19.019  0.3067E+02  0.8950E+02
    -19.005  0.3050E+02  0.8992E+02
    -18.991  0.3035E+02  0.9034E+02
    -18.977  0.3022E+02  0.9076E+02
    -18.964  0.3013E+02  0.9118E+02
    -18.950  0.3006E+02  0.9160E+02
    -18.936  0.3003E+02  0.9201E+02
    -18.922  0.3002E+02  0.9243E+02
    -18.908  0.3004E+02  0.9285E+02
    -18.894  0.3008E+02  0.9327E+02
    -18.880  0.3015E+02  0.9369E+02
    -18.866  0.3024E+02  0.9410E+02
    -18.852  0.3035E+02  0.9453E+02
    -18.839  0.3047E+02  0.9495E+02
    -18.825  0.3059E+02  0.9537E+02
    -18.811  0.3073E+02  0.9580E+02
    -18.797  0.3086E+02  0.9623E+02
    -18.783  0.3099E+02  0.9666E+02
    -18.769  0.3112E+02  0.9709E+02
    -18.755  0.3124E+02  0.9753E+02
    -18.741  0.3134E+02  0.9796E+02
    -18.728  0.3143E+02  0.9840E+02
    -18.714  0.3151E+02  0.9883E+02
    -18.700  0.3156E+02  0.9927E+02
    -18.686  0.3161E+02  0.9971E+02
    -18.672  0.3163E+02  0.1002E+03
    -18.658  0.3164E+02  0.1006E+03
    -18.644  0.3163E+02  0.1010E+03
    -18.630  0.3161E+02  0.1015E+03
    -18.616  0.3157E+02  0.1019E+03
    -18.603  0.3153E+02  0.1023E+03
    -18.589  0.3148E+02  0.1028E+03
    -18.575  0.3142E+02  0.1032E+03
    -18.561  0.3136E+02  0.1037E+03
    -18.547  0.3130E+02  0.1041E+03
    -18.533  0.3124E+02  0.1045E+03
    -18.519  0.3118E+02  0.1050E+03
    -18.505  0.3112E+02  0.1054E+03
    -18.491  0.3106E+02  0.1058E+03
    -18.478  0.3100E+02  0.1062E+03
    -18.464  0.3095E+02  0.1067E+03
    -18.450  0.3089E+02  0.1071E+03
    -18.436  0.3084E+02  0.1075E+03
    -18.422  0.3079E+02  0.1080E+03
    -18.408  0.3073E+02  0.1084E+03
    -18.394  0.3067E+02  0.1088E+03
    -18.380  0.3061E+02  0.1092E+03
    -18.367  0.3055E+02  0.1097E+03
    -18.353  0.3048E+02  0.1101E+03
    -18.339  0.3041E+02  0.1105E+03
    -18.325  0.3033E+02  0.1109E+03
    -18.311  0.3026E+02  0.1113E+03
    -18.297  0.3017E+02  0.1118E+03
    -18.283  0.3009E+02  0.1122E+03
    -18.269  0.3001E+02  0.1126E+03
    -18.255  0.2992E+02  0.1130E+03
    -18.242  0.2985E+02  0.1134E+03
    -18.228  0.2977E+02  0.1138E+03
    -18.214  0.2971E+02  0.1143E+03
    -18.200  0.2965E+02  0.1147E+03
    -18.186  0.2961E+02  0.1151E+03
    -18.172  0.2958E+02  0.1155E+03
    -18.158  0.2957E+02  0.1159E+03
    -18.144  0.2958E+02  0.1163E+03
    -18.130  0.2960E+02  0.1167E+03
    -18.117  0.2965E+02  0.1171E+03
    -18.103  0.2971E+02  0.1175E+03
    -18.089  0.2980E+02  0.1180E+03
    -18.075  0.2990E+02  0.1184E+03
    -18.061  0.3002E+02  0.1188E+03
    -18.047  0.3015E+02  0.1192E+03
    -18.033  0.3029E+02  0.1196E+03
    -18.019  0.3044E+02  0.1201E+03
    -18.006  0.3060E+02  0.1205E+03
    -17.992  0.3076E+02  0.1209E+03
    -17.978  0.3091E+02  0.1213E+03
    -17.964  0.3107E+02  0.1218E+03
    -17.950  0.3122E+02  0.1222E+03
    -17.936  0.3137E+02  0.1226E+03
    -17.922  0.3151E+02  0.1231E+03
    -17.908  0.3164E+02  0.1235E+03
    -17.894  0.3177E+02  0.1240E+03
    -17.881  0.3189E+02  0.1244E+03
    -17.867  0.3201E+02  0.1248E+03
    -17.853  0.3214E+02  0.1253E+03
    -17.839  0.3226E+02  0.1257E+03
    -17.825  0.3238E+02  0.1262E+03
    -17.811  0.3251E+02  0.1266E+03
    -17.797  0.3265E+02  0.1271E+03
    -17.783  0.3279E+02  0.1275E+03
    -17.769  0.3294E+02  0.1280E+03
    -17.756  0.3309E+02  0.1285E+03
    -17.742  0.3325E+02  0.1289E+03
    -17.728  0.3341E+02  0.1294E+03
    -17.714  0.3358E+02  0.1299E+03
    -17.700  0.3375E+02  0.1303E+03
    -17.686  0.3391E+02  0.1308E+03
    -17.672  0.3407E+02  0.1313E+03
    -17.658  0.3422E+02  0.1317E+03
    -17.645  0.3436E+02  0.1322E+03
    -17.631  0.3448E+02  0.1327E+03
    -17.617  0.3459E+02  0.1332E+03
    -17.603  0.3468E+02  0.1337E+03
    -17.589  0.3474E+02  0.1341E+03
    -17.575  0.3478E+02  0.1346E+03
    -17.561  0.3480E+02  0.1351E+03
    -17.547  0.3480E+02  0.1356E+03
    -17.533  0.3477E+02  0.1361E+03
    -17.520  0.3471E+02  0.1366E+03
    -17.506  0.3463E+02  0.1370E+03
    -17.492  0.3453E+02  0.1375E+03
    -17.478  0.3440E+02  0.1380E+03
    -17.464  0.3425E+02  0.1385E+03
    -17.450  0.3408E+02  0.1389E+03
    -17.436  0.3390E+02  0.1394E+03
    -17.422  0.3369E+02  0.1399E+03
    -17.409  0.3347E+02  0.1403E+03
    -17.395  0.3324E+02  0.1408E+03
    -17.381  0.3299E+02  0.1413E+03
    -17.367  0.3274E+02  0.1417E+03
    -17.353  0.3248E+02  0.1422E+03
    -17.339  0.3221E+02  0.1426E+03
    -17.325  0.3194E+02  0.1431E+03
    -17.311  0.3167E+02  0.1435E+03
    -17.297  0.3140E+02  0.1439E+03
    -17.284  0.3113E+02  0.1444E+03
    -17.270  0.3087E+02  0.1448E+03
    -17.256  0.3061E+02  0.1452E+03
    -17.242  0.3037E+02  0.1456E+03
    -17.228  0.3014E+02  0.1461E+03
    -17.214  0.2993E+02  0.1465E+03
    -17.200  0.2974E+02  0.1469E+03
    -17.186  0.2958E+02  0.1473E+03
    -17.172  0.2944E+02  0.1477E+03
    -17.159  0.2933E+02  0.1481E+03
    -17.145  0.2925E+02  0.1485E+03
    -17.131  0.2921E+02  0.1489E+03
    -17.117  0.2921E+02  0.1493E+03
    -17.103  0.2924E+02  0.1497E+03
    -17.089  0.2931E+02  0.1501E+03
    -17.075  0.2942E+02  0.1506E+03
    -17.061  0.2957E+02  0.1510E+03
    -17.048  0.2975E+02  0.1514E+03
    -17.034  0.2997E+02  0.1518E+03
    -17.020  0.3021E+02  0.1522E+03
    -17.006  0.3048E+02  0.1526E+03
    -16.992  0.3077E+02  0.1531E+03
    -16.978  0.3106E+02  0.1535E+03
    -16.964  0.3137E+02  0.1539E+03
    -16.950  0.3167E+02  0.1544E+03
    -16.936  0.3197E+02  0.1548E+03
    -16.923  0.3226E+02  0.1553E+03
    -16.909  0.3253E+02  0.1557E+03
    -16.895  0.3277E+02  0.1562E+03
    -16.881  0.3298E+02  0.1566E+03
    -16.867  0.3315E+02  0.1571E+03
    -16.853  0.3329E+02  0.1576E+03
    -16.839  0.3339E+02  0.1580E+03
    -16.825  0.3344E+02  0.1585E+03
    -16.811  0.3345E+02  0.1589E+03
    -16.798  0.3341E+02  0.1594E+03
    -16.784  0.3334E+02  0.1599E+03
    -16.770  0.3323E+02  0.1603E+03
    -16.756  0.3309E+02  0.1608E+03
    -16.742  0.3292E+02  0.1612E+03
    -16.728  0.3272E+02  0.1617E+03
    -16.714  0.3251E+02  0.1622E+03
    -16.700  0.3229E+02  0.1626E+03
    -16.687  0.3207E+02  0.1630E+03
    -16.673  0.3184E+02  0.1635E+03
    -16.659  0.3162E+02  0.1639E+03
    -16.645  0.3142E+02  0.1644E+03
    -16.631  0.3123E+02  0.1648E+03
    -16.617  0.3106E+02  0.1652E+03
    -16.603  0.3092E+02  0.1657E+03
    -16.589  0.3080E+02  0.1661E+03
    -16.575  0.3071E+02  0.1665E+03
    -16.562  0.3065E+02  0.1669E+03
    -16.548  0.3061E+02  0.1674E+03
    -16.534  0.3060E+02  0.1678E+03
    -16.520  0.3062E+02  0.1682E+03
    -16.506  0.3065E+02  0.1686E+03
    -16.492  0.3070E+02  0.1691E+03
    -16.478  0.3077E+02  0.1695E+03
    -16.464  0.3085E+02  0.1699E+03
    -16.450  0.3093E+02  0.1704E+03
    -16.437  0.3102E+02  0.1708E+03
    -16.423  0.3110E+02  0.1712E+03
    -16.409  0.3118E+02  0.1716E+03
    -16.395  0.3124E+02  0.1721E+03
    -16.381  0.3129E+02  0.1725E+03
    -16.367  0.3133E+02  0.1729E+03
    -16.353  0.3134E+02  0.1734E+03
    -16.339  0.3133E+02  0.1738E+03
    -16.326  0.3129E+02  0.1743E+03
    -16.312  0.3123E+02  0.1747E+03
    -16.298  0.3115E+02  0.1751E+03
    -16.284  0.3104E+02  0.1756E+03
    -16.270  0.3091E+02  0.1760E+03
    -16.256  0.3075E+02  0.1764E+03
    -16.242  0.3058E+02  0.1768E+03
    -16.228  0.3040E+02  0.1773E+03
    -16.214  0.3020E+02  0.1777E+03
    -16.201  0.3000E+02  0.1781E+03
    -16.187  0.2980E+02  0.1785E+03
    -16.173  0.2960E+02  0.1789E+03
    -16.159  0.2940E+02  0.1793E+03
    -16.145  0.2921E+02  0.1797E+03
    -16.131  0.2904E+02  0.1801E+03
    -16.117  0.2887E+02  0.1805E+03
    -16.103  0.2873E+02  0.1809E+03
    -16.090  0.2860E+02  0.1813E+03
    -16.076  0.2848E+02  0.1817E+03
    -16.062  0.2838E+02  0.1821E+03
    -16.048  0.2829E+02  0.1825E+03
    -16.034  0.2822E+02  0.1829E+03
    -16.020  0.2816E+02  0.1833E+03
    -16.006  0.2811E+02  0.1837E+03
    -15.992  0.2807E+02  0.1841E+03
    -15.978  0.2803E+02  0.1845E+03
    -15.965  0.2800E+02  0.1849E+03
    -15.951  0.2797E+02  0.1852E+03
    -15.937  0.2795E+02  0.1856E+03
    -15.923  0.2793E+02  0.1860E+03
    -15.909  0.2792E+02  0.1864E+03
    -15.895  0.2791E+02  0.1868E+03
    -15.881  0.2792E+02  0.1872E+03
    -15.867  0.2793E+02  0.1876E+03
    -15.853  0.2795E+02  0.1880E+03
    -15.840  0.2799E+02  0.1883E+03
    -15.826  0.2804E+02  0.1887E+03
    -15.812  0.2810E+02  0.1891E+03
    -15.798  0.2819E+02  0.1895E+03
    -15.784  0.2829E+02  0.1899E+03
    -15.770  0.2841E+02  0.1903E+03
    -15.756  0.2855E+02  0.1907E+03
    -15.742  0.2870E+02  0.1911E+03
    -15.729  0.2888E+02  0.1915E+03
    -15.715  0.2907E+02  0.1919E+03
    -15.701  0.2927E+02  0.1923E+03
    -15.687  0.2949E+02  0.1927E+03
    -15.673  0.2971E+02  0.1931E+03
    -15.659  0.2995E+02  0.1935E+03
    -15.645  0.3019E+02  0.1940E+03
    -15.631  0.3043E+02  0.1944E+03
    -15.617  0.3067E+02  0.1948E+03
    -15.604  0.3091E+02  0.1952E+03
    -15.590  0.3114E+02  0.1957E+03
    -15.576  0.3136E+02  0.1961E+03
    -15.562  0.3156E+02  0.1965E+03
    -15.548  0.3175E+02  0.1970E+03
    -15.534  0.3192E+02  0.1974E+03
    -15.520  0.3207E+02  0.1979E+03
    -15.506  0.3219E+02  0.1983E+03
    -15.492  0.3227E+02  0.1988E+03
    -15.479  0.3233E+02  0.1992E+03
    -15.465  0.3235E+02  0.1997E+03
    -15.451  0.3233E+02  0.2001E+03
    -15.437  0.3228E+02  0.2006E+03
    -15.423  0.3218E+02  0.2010E+03
    -15.409  0.3205E+02  0.2015E+03
    -15.395  0.3189E+02  0.2019E+03
    -15.381  0.3169E+02  0.2023E+03
    -15.368  0.3147E+02  0.2028E+03
    -15.354  0.3122E+02  0.2032E+03
    -15.340  0.3094E+02  0.2036E+03
    -15.326  0.3066E+02  0.2041E+03
    -15.312  0.3036E+02  0.2045E+03
    -15.298  0.3005E+02  0.2049E+03
    -15.284  0.2975E+02  0.2053E+03
    -15.270  0.2946E+02  0.2057E+03
    -15.256  0.2917E+02  0.2061E+03
    -15.243  0.2891E+02  0.2065E+03
    -15.229  0.2867E+02  0.2069E+03
    -15.215  0.2845E+02  0.2073E+03
    -15.201  0.2827E+02  0.2077E+03
    -15.187  0.2812E+02  0.2081E+03
    -15.173  0.2801E+02  0.2085E+03
    -15.159  0.2795E+02  0.2089E+03
    -15.145  0.2792E+02  0.2093E+03
    -15.131  0.2794E+02  0.2097E+03
    -15.118  0.2800E+02  0.2101E+03
    -15.104  0.2811E+02  0.2104E+03
    -15.090  0.2826E+02  0.2108E+03
    -15.076  0.2845E+02  0.2112E+03
    -15.062  0.2869E+02  0.2116E+03
    -15.048  0.2897E+02  0.2120E+03
    -15.034  0.2928E+02  0.2124E+03
    -15.020  0.2963E+02  0.2128E+03
    -15.007  0.3000E+02  0.2133E+03
    -14.993  0.3041E+02  0.2137E+03
    -14.979  0.3083E+02  0.2141E+03
    -14.965  0.3128E+02  0.2145E+03
    -14.951  0.3173E+02  0.2150E+03
    -14.937  0.3219E+02  0.2154E+03
    -14.923  0.3264E+02  0.2159E+03
    -14.909  0.3309E+02  0.2163E+03
    -14.895  0.3353E+02  0.2168E+03
    -14.882  0.3395E+02  0.2173E+03
    -14.868  0.3433E+02  0.2178E+03
    -14.854  0.3469E+02  0.2182E+03
    -14.840  0.3500E+02  0.2187E+03
    -14.826  0.3527E+02  0.2192E+03
    -14.812  0.3549E+02  0.2197E+03
    -14.798  0.3565E+02  0.2202E+03
    -14.784  0.3575E+02  0.2207E+03
    -14.771  0.3579E+02  0.2212E+03
    -14.757  0.3577E+02  0.2217E+03
    -14.743  0.3567E+02  0.2222E+03
    -14.729  0.3552E+02  0.2227E+03
    -14.715  0.3530E+02  0.2232E+03
    -14.701  0.3502E+02  0.2237E+03
    -14.687  0.3469E+02  0.2241E+03
    -14.673  0.3431E+02  0.2246E+03
    -14.659  0.3389E+02  0.2251E+03
    -14.646  0.3343E+02  0.2256E+03
    -14.632  0.3295E+02  0.2260E+03
    -14.618  0.3245E+02  0.2265E+03
    -14.604  0.3195E+02  0.2269E+03
    -14.590  0.3145E+02  0.2273E+03
    -14.576  0.3096E+02  0.2278E+03
    -14.562  0.3050E+02  0.2282E+03
    -14.548  0.3006E+02  0.2286E+03
    -14.534  0.2966E+02  0.2290E+03
    -14.521  0.2930E+02  0.2294E+03
    -14.507  0.2899E+02  0.2298E+03
    -14.493  0.2873E+02  0.2302E+03
    -14.479  0.2853E+02  0.2306E+03
    -14.465  0.2838E+02  0.2310E+03
    -14.451  0.2828E+02  0.2314E+03
    -14.437  0.2824E+02  0.2318E+03
    -14.423  0.2826E+02  0.2322E+03
    -14.410  0.2832E+02  0.2326E+03
    -14.396  0.2843E+02  0.2330E+03
    -14.382  0.2859E+02  0.2334E+03
    -14.368  0.2878E+02  0.2338E+03
    -14.354  0.2901E+02  0.2342E+03
    -14.340  0.2927E+02  0.2346E+03
    -14.326  0.2956E+02  0.2350E+03
    -14.312  0.2987E+02  0.2354E+03
    -14.298  0.3020E+02  0.2358E+03
    -14.285  0.3054E+02  0.2363E+03
    -14.271  0.3090E+02  0.2367E+03
    -14.257  0.3127E+02  0.2371E+03
    -14.243  0.3164E+02  0.2376E+03
    -14.229  0.3202E+02  0.2380E+03
    -14.215  0.3239E+02  0.2385E+03
    -14.201  0.3276E+02  0.2389E+03
    -14.187  0.3312E+02  0.2394E+03
    -14.173  0.3347E+02  0.2398E+03
    -14.160  0.3380E+02  0.2403E+03
    -14.146  0.3411E+02  0.2408E+03
    -14.132  0.3440E+02  0.2413E+03
    -14.118  0.3467E+02  0.2417E+03
    -14.104  0.3491E+02  0.2422E+03
    -14.090  0.3512E+02  0.2427E+03
    -14.076  0.3530E+02  0.2432E+03
    -14.062  0.3545E+02  0.2437E+03
    -14.049  0.3557E+02  0.2442E+03
    -14.035  0.3565E+02  0.2447E+03
    -14.021  0.3571E+02  0.2452E+03
    -14.007  0.3573E+02  0.2457E+03
    -13.993  0.3573E+02  0.2462E+03
    -13.979  0.3570E+02  0.2467E+03
    -13.965  0.3565E+02  0.2472E+03
    -13.951  0.3558E+02  0.2477E+03
    -13.937  0.3549E+02  0.2481E+03
    -13.924  0.3538E+02  0.2486E+03
    -13.910  0.3526E+02  0.2491E+03
    -13.896  0.3513E+02  0.2496E+03
    -13.882  0.3500E+02  0.2501E+03
    -13.868  0.3485E+02  0.2506E+03
    -13.854  0.3471E+02  0.2511E+03
    -13.840  0.3456E+02  0.2515E+03
    -13.826  0.3441E+02  0.2520E+03
    -13.812  0.3427E+02  0.2525E+03
    -13.799  0.3413E+02  0.2530E+03
    -13.785  0.3399E+02  0.2534E+03
    -13.771  0.3386E+02  0.2539E+03
    -13.757  0.3374E+02  0.2544E+03
    -13.743  0.3363E+02  0.2549E+03
    -13.729  0.3353E+02  0.2553E+03
    -13.715  0.3345E+02  0.2558E+03
    -13.701  0.3338E+02  0.2562E+03
    -13.688  0.3332E+02  0.2567E+03
    -13.674  0.3328E+02  0.2572E+03
    -13.660  0.3325E+02  0.2576E+03
    -13.646  0.3323E+02  0.2581E+03
    -13.632  0.3322E+02  0.2586E+03
    -13.618  0.3323E+02  0.2590E+03
    -13.604  0.3324E+02  0.2595E+03
    -13.590  0.3326E+02  0.2599E+03
    -13.576  0.3328E+02  0.2604E+03
    -13.563  0.3331E+02  0.2609E+03
    -13.549  0.3333E+02  0.2613E+03
    -13.535  0.3335E+02  0.2618E+03
    -13.521  0.3337E+02  0.2623E+03
    -13.507  0.3338E+02  0.2627E+03
    -13.493  0.3338E+02  0.2632E+03
    -13.479  0.3338E+02  0.2636E+03
    -13.465  0.3337E+02  0.2641E+03
    -13.452  0.3335E+02  0.2646E+03
    -13.438  0.3332E+02  0.2650E+03
    -13.424  0.3329E+02  0.2655E+03
    -13.410  0.3325E+02  0.2660E+03
    -13.396  0.3321E+02  0.2664E+03
    -13.382  0.3317E+02  0.2669E+03
    -13.368  0.3312E+02  0.2673E+03
    -13.354  0.3308E+02  0.2678E+03
    -13.340  0.3303E+02  0.2683E+03
    -13.327  0.3300E+02  0.2687E+03
    -13.313  0.3296E+02  0.2692E+03
    -13.299  0.3293E+02  0.2696E+03
    -13.285  0.3291E+02  0.2701E+03
    -13.271  0.3290E+02  0.2705E+03
    -13.257  0.3289E+02  0.2710E+03
    -13.243  0.3289E+02  0.2715E+03
    -13.229  0.3290E+02  0.2719E+03
    -13.215  0.3292E+02  0.2724E+03
    -13.202  0.3295E+02  0.2728E+03
    -13.188  0.3298E+02  0.2733E+03
    -13.174  0.3303E+02  0.2737E+03
    -13.160  0.3308E+02  0.2742E+03
    -13.146  0.3314E+02  0.2747E+03
    -13.132  0.3321E+02  0.2751E+03
    -13.118  0.3329E+02  0.2756E+03
    -13.104  0.3336E+02  0.2761E+03
    -13.091  0.3344E+02  0.2765E+03
    -13.077  0.3353E+02  0.2770E+03
    -13.063  0.3361E+02  0.2774E+03
    -13.049  0.3368E+02  0.2779E+03
    -13.035  0.3375E+02  0.2784E+03
    -13.021  0.3382E+02  0.2789E+03
    -13.007  0.3387E+02  0.2793E+03
    -12.993  0.3392E+02  0.2798E+03
    -12.979  0.3395E+02  0.2803E+03
    -12.966  0.3397E+02  0.2807E+03
    -12.952  0.3398E+02  0.2812E+03
    -12.938  0.3398E+02  0.2817E+03
    -12.924  0.3397E+02  0.2822E+03
    -12.910  0.3395E+02  0.2826E+03
    -12.896  0.3392E+02  0.2831E+03
    -12.882  0.3389E+02  0.2836E+03
    -12.868  0.3385E+02  0.2840E+03
    -12.854  0.3381E+02  0.2845E+03
    -12.841  0.3377E+02  0.2850E+03
    -12.827  0.3373E+02  0.2854E+03
    -12.813  0.3370E+02  0.2859E+03
    -12.799  0.3367E+02  0.2864E+03
    -12.785  0.3365E+02  0.2868E+03
    -12.771  0.3364E+02  0.2873E+03
    -12.757  0.3363E+02  0.2878E+03