  94  94   0   0
  0.2675112E+02  0.1704000E-08  0.1475707E-08  0.1000000E-08  0.5000000E-15
  1.000000000000000E-004
  CAR 
 unknown system                          
      6.47131675    -23.23461203 2000     -1.34923406      1.00000000
    -23.235  0.0000E+00  0.0000E+00
    -23.220  0.0000E+00  0.0000E+00
    -23.205  0.0000E+00  0.0000E+00
    -23.190  0.0000E+00  0.0000E+00
    -23.175  0.0000E+00  0.0000E+00
    -23.160  0.0000E+00  0.0000E+00
    -23.145  0.0000E+00  0.0000E+00
    -23.131  0.0000E+00  0.0000E+00
    -23.116  0.0000E+00  0.0000E+00
    -23.101  0.0000E+00  0.0000E+00
    -23.086  0.0000E+00  0.0000E+00
    -23.071  0.0000E+00  0.0000E+00
    -23.056  0.0000E+00  0.0000E+00
    -23.041  0.0000E+00  0.0000E+00
    -23.027  0.0000E+00  0.0000E+00
    -23.012  0.0000E+00  0.0000E+00
    -22.997  0.0000E+00  0.0000E+00
    -22.982  0.0000E+00  0.0000E+00
    -22.967  0.0000E+00  0.0000E+00
    -22.952  0.0000E+00  0.0000E+00
    -22.937  0.0000E+00  0.0000E+00
    -22.923  0.0000E+00  0.0000E+00
    -22.908  0.0000E+00  0.0000E+00
    -22.893  0.0000E+00  0.0000E+00
    -22.878  0.0000E+00  0.0000E+00
    -22.863  0.0000E+00  0.0000E+00
    -22.848  0.0000E+00  0.0000E+00
    -22.833  0.0000E+00  0.0000E+00
    -22.819  0.0000E+00  0.0000E+00
    -22.804  0.0000E+00  0.0000E+00
    -22.789  0.0000E+00  0.0000E+00
    -22.774  0.0000E+00  0.0000E+00
    -22.759  0.0000E+00  0.0000E+00
    -22.744  0.0000E+00  0.0000E+00
    -22.729  0.0000E+00  0.0000E+00
    -22.714  0.0000E+00  0.0000E+00
    -22.700  0.0000E+00  0.0000E+00
    -22.685  0.0000E+00  0.0000E+00
    -22.670  0.0000E+00  0.0000E+00
    -22.655  0.0000E+00  0.0000E+00
    -22.640  0.0000E+00  0.0000E+00
    -22.625  0.0000E+00  0.0000E+00
    -22.610  0.0000E+00  0.0000E+00
    -22.596  0.0000E+00  0.0000E+00
    -22.581  0.0000E+00  0.0000E+00
    -22.566  0.0000E+00  0.0000E+00
    -22.551  0.0000E+00  0.0000E+00
    -22.536  0.0000E+00  0.0000E+00
    -22.521  0.0000E+00  0.0000E+00
    -22.506  0.0000E+00  0.0000E+00
    -22.492  0.0000E+00  0.0000E+00
    -22.477  0.0000E+00  0.0000E+00
    -22.462  0.0000E+00  0.0000E+00
    -22.447  0.0000E+00  0.0000E+00
    -22.432  0.0000E+00  0.0000E+00
    -22.417  0.8301E-15  0.1234E-16
    -22.402  0.1660E-14  0.3701E-16
    -22.388  0.8301E-14  0.1604E-15
    -22.373  0.1577E-13  0.3947E-15
    -22.358  0.3320E-13  0.8882E-15
    -22.343  0.8052E-13  0.2085E-14
    -22.328  0.1843E-12  0.4823E-14
    -22.313  0.4209E-12  0.1108E-13
    -22.298  0.9405E-12  0.2505E-13
    -22.284  0.2094E-11  0.5618E-13
    -22.269  0.4600E-11  0.1245E-12
    -22.254  0.1001E-10  0.2733E-12
    -22.239  0.2152E-10  0.5930E-12
    -22.224  0.4576E-10  0.1273E-11
    -22.209  0.9627E-10  0.2704E-11
    -22.194  0.2003E-09  0.5680E-11
    -22.180  0.4122E-09  0.1181E-10
    -22.165  0.8390E-09  0.2427E-10
    -22.150  0.1689E-08  0.4937E-10
    -22.135  0.3363E-08  0.9935E-10
    -22.120  0.6623E-08  0.1978E-09
    -22.105  0.1290E-07  0.3895E-09
    -22.090  0.2486E-07  0.7589E-09
    -22.076  0.4737E-07  0.1463E-08
    -22.061  0.8927E-07  0.2789E-08
    -22.046  0.1664E-06  0.5262E-08
    -22.031  0.3068E-06  0.9822E-08
    -22.016  0.5595E-06  0.1814E-07
    -22.001  0.1009E-05  0.3313E-07
    -21.986  0.1800E-05  0.5989E-07
    -21.971  0.3177E-05  0.1071E-06
    -21.957  0.5544E-05  0.1895E-06
    -21.942  0.9570E-05  0.3317E-06
    -21.927  0.1634E-04  0.5745E-06
    -21.912  0.2759E-04  0.9844E-06
    -21.897  0.4607E-04  0.1669E-05
    -21.882  0.7611E-04  0.2800E-05
    -21.867  0.1244E-03  0.4648E-05
    -21.853  0.2009E-03  0.7634E-05
    -21.838  0.3212E-03  0.1241E-04
    -21.823  0.5077E-03  0.1995E-04
    -21.808  0.7939E-03  0.3175E-04
    -21.793  0.1228E-02  0.4999E-04
    -21.778  0.1878E-02  0.7790E-04
    -21.763  0.2841E-02  0.1201E-03
    -21.749  0.4251E-02  0.1833E-03
    -21.734  0.6292E-02  0.2768E-03
    -21.719  0.9210E-02  0.4136E-03
    -21.704  0.1333E-01  0.6118E-03
    -21.689  0.1909E-01  0.8955E-03
    -21.674  0.2704E-01  0.1297E-02
    -21.659  0.3788E-01  0.1860E-02
    -21.645  0.5249E-01  0.2640E-02
    -21.630  0.7194E-01  0.3709E-02
    -21.615  0.9751E-01  0.5158E-02
    -21.600  0.1307E+00  0.7101E-02
    -21.585  0.1733E+00  0.9677E-02
    -21.570  0.2273E+00  0.1306E-01
    -21.555  0.2949E+00  0.1744E-01
    -21.541  0.3784E+00  0.2306E-01
    -21.526  0.4802E+00  0.3020E-01
    -21.511  0.6029E+00  0.3916E-01
    -21.496  0.7485E+00  0.5028E-01
    -21.481  0.9193E+00  0.6394E-01
    -21.466  0.1117E+01  0.8054E-01
    -21.451  0.1342E+01  0.1005E+00
    -21.437  0.1595E+01  0.1242E+00
    -21.422  0.1876E+01  0.1521E+00
    -21.407  0.2182E+01  0.1845E+00
    -21.392  0.2511E+01  0.2218E+00
    -21.377  0.2859E+01  0.2643E+00
    -21.362  0.3221E+01  0.3121E+00
    -21.347  0.3590E+01  0.3655E+00
    -21.332  0.3962E+01  0.4244E+00
    -21.318  0.4326E+01  0.4887E+00
    -21.303  0.4678E+01  0.5582E+00
    -21.288  0.5009E+01  0.6326E+00
    -21.273  0.5313E+01  0.7116E+00
    -21.258  0.5585E+01  0.7945E+00
    -21.243  0.5820E+01  0.8810E+00
    -21.228  0.6016E+01  0.9704E+00
    -21.214  0.6174E+01  0.1062E+01
    -21.199  0.6295E+01  0.1156E+01
    -21.184  0.6383E+01  0.1251E+01
    -21.169  0.6443E+01  0.1346E+01
    -21.154  0.6484E+01  0.1443E+01
    -21.139  0.6513E+01  0.1539E+01
    -21.124  0.6539E+01  0.1637E+01
    -21.110  0.6573E+01  0.1734E+01
    -21.095  0.6622E+01  0.1833E+01
    -21.080  0.6696E+01  0.1932E+01
    -21.065  0.6800E+01  0.2033E+01
    -21.050  0.6940E+01  0.2136E+01
    -21.035  0.7119E+01  0.2242E+01
    -21.020  0.7336E+01  0.2351E+01
    -21.006  0.7592E+01  0.2464E+01
    -20.991  0.7882E+01  0.2581E+01
    -20.976  0.8201E+01  0.2703E+01
    -20.961  0.8544E+01  0.2830E+01
    -20.946  0.8902E+01  0.2962E+01
    -20.931  0.9269E+01  0.3100E+01
    -20.916  0.9637E+01  0.3243E+01
    -20.902  0.9999E+01  0.3392E+01
    -20.887  0.1035E+02  0.3546E+01
    -20.872  0.1068E+02  0.3704E+01
    -20.857  0.1099E+02  0.3868E+01
    -20.842  0.1128E+02  0.4035E+01
    -20.827  0.1154E+02  0.4207E+01
    -20.812  0.1178E+02  0.4382E+01
    -20.798  0.1199E+02  0.4560E+01
    -20.783  0.1217E+02  0.4741E+01
    -20.768  0.1234E+02  0.4924E+01
    -20.753  0.1248E+02  0.5110E+01
    -20.738  0.1261E+02  0.5297E+01
    -20.723  0.1272E+02  0.5486E+01
    -20.708  0.1282E+02  0.5677E+01
    -20.693  0.1290E+02  0.5869E+01
    -20.679  0.1297E+02  0.6061E+01
    -20.664  0.1303E+02  0.6255E+01
    -20.649  0.1307E+02  0.6449E+01
    -20.634  0.1309E+02  0.6644E+01
    -20.619  0.1310E+02  0.6838E+01
    -20.604  0.1309E+02  0.7033E+01
    -20.589  0.1307E+02  0.7227E+01
    -20.575  0.1303E+02  0.7421E+01
    -20.560  0.1298E+02  0.7614E+01
    -20.545  0.1291E+02  0.7805E+01
    -20.530  0.1283E+02  0.7996E+01
    -20.515  0.1275E+02  0.8186E+01
    -20.500  0.1266E+02  0.8374E+01
    -20.485  0.1257E+02  0.8561E+01
    -20.471  0.1250E+02  0.8746E+01
    -20.456  0.1243E+02  0.8931E+01
    -20.441  0.1238E+02  0.9115E+01
    -20.426  0.1236E+02  0.9299E+01
    -20.411  0.1235E+02  0.9482E+01
    -20.396  0.1238E+02  0.9666E+01
    -20.381  0.1243E+02  0.9851E+01
    -20.367  0.1250E+02  0.1004E+02
    -20.352  0.1261E+02  0.1022E+02
    -20.337  0.1273E+02  0.1041E+02
    -20.322  0.1288E+02  0.1060E+02
    -20.307  0.1304E+02  0.1080E+02
    -20.292  0.1322E+02  0.1099E+02
    -20.277  0.1339E+02  0.1119E+02
    -20.263  0.1357E+02  0.1140E+02
    -20.248  0.1373E+02  0.1160E+02
    -20.233  0.1389E+02  0.1181E+02
    -20.218  0.1402E+02  0.1201E+02
    -20.203  0.1413E+02  0.1222E+02
    -20.188  0.1422E+02  0.1244E+02
    -20.173  0.1427E+02  0.1265E+02
    -20.159  0.1430E+02  0.1286E+02
    -20.144  0.1430E+02  0.1307E+02
    -20.129  0.1427E+02  0.1328E+02
    -20.114  0.1422E+02  0.1350E+02
    -20.099  0.1415E+02  0.1371E+02
    -20.084  0.1405E+02  0.1392E+02
    -20.069  0.1395E+02  0.1412E+02
    -20.054  0.1383E+02  0.1433E+02
    -20.040  0.1371E+02  0.1453E+02
    -20.025  0.1358E+02  0.1473E+02
    -20.010  0.1346E+02  0.1493E+02
    -19.995  0.1334E+02  0.1513E+02
    -19.980  0.1324E+02  0.1533E+02
    -19.965  0.1314E+02  0.1552E+02
    -19.950  0.1306E+02  0.1572E+02
    -19.936  0.1300E+02  0.1591E+02
    -19.921  0.1295E+02  0.1610E+02
    -19.906  0.1292E+02  0.1630E+02
    -19.891  0.1291E+02  0.1649E+02
    -19.876  0.1293E+02  0.1668E+02
    -19.861  0.1296E+02  0.1687E+02
    -19.846  0.1302E+02  0.1707E+02
    -19.832  0.1309E+02  0.1726E+02
    -19.817  0.1318E+02  0.1746E+02
    -19.802  0.1329E+02  0.1765E+02
    -19.787  0.1342E+02  0.1785E+02
    -19.772  0.1356E+02  0.1805E+02
    -19.757  0.1370E+02  0.1826E+02
    -19.742  0.1386E+02  0.1846E+02
    -19.728  0.1401E+02  0.1867E+02
    -19.713  0.1415E+02  0.1888E+02
    -19.698  0.1429E+02  0.1909E+02
    -19.683  0.1442E+02  0.1931E+02
    -19.668  0.1452E+02  0.1952E+02
    -19.653  0.1461E+02  0.1974E+02
    -19.638  0.1466E+02  0.1996E+02
    -19.624  0.1470E+02  0.2018E+02
    -19.609  0.1470E+02  0.2040E+02
    -19.594  0.1467E+02  0.2061E+02
    -19.579  0.1462E+02  0.2083E+02
    -19.564  0.1454E+02  0.2105E+02
    -19.549  0.1443E+02  0.2126E+02
    -19.534  0.1431E+02  0.2147E+02
    -19.520  0.1417E+02  0.2169E+02
    -19.505  0.1401E+02  0.2189E+02
    -19.490  0.1385E+02  0.2210E+02
    -19.475  0.1368E+02  0.2230E+02
    -19.460  0.1352E+02  0.2250E+02
    -19.445  0.1336E+02  0.2270E+02
    -19.430  0.1321E+02  0.2290E+02
    -19.415  0.1307E+02  0.2309E+02
    -19.401  0.1295E+02  0.2328E+02
    -19.386  0.1285E+02  0.2348E+02
    -19.371  0.1277E+02  0.2367E+02
    -19.356  0.1271E+02  0.2385E+02
    -19.341  0.1269E+02  0.2404E+02
    -19.326  0.1269E+02  0.2423E+02
    -19.311  0.1272E+02  0.2442E+02
    -19.297  0.1278E+02  0.2461E+02
    -19.282  0.1287E+02  0.2480E+02
    -19.267  0.1298E+02  0.2499E+02
    -19.252  0.1312E+02  0.2519E+02
    -19.237  0.1328E+02  0.2539E+02
    -19.222  0.1347E+02  0.2559E+02
    -19.207  0.1367E+02  0.2579E+02
    -19.193  0.1388E+02  0.2600E+02
    -19.178  0.1409E+02  0.2621E+02
    -19.163  0.1431E+02  0.2642E+02
    -19.148  0.1452E+02  0.2663E+02
    -19.133  0.1473E+02  0.2685E+02
    -19.118  0.1492E+02  0.2707E+02
    -19.103  0.1509E+02  0.2730E+02
    -19.089  0.1523E+02  0.2753E+02
    -19.074  0.1535E+02  0.2775E+02
    -19.059  0.1544E+02  0.2798E+02
    -19.044  0.1549E+02  0.2821E+02
    -19.029  0.1551E+02  0.2844E+02
    -19.014  0.1550E+02  0.2867E+02
    -18.999  0.1546E+02  0.2890E+02
    -18.985  0.1539E+02  0.2913E+02
    -18.970  0.1530E+02  0.2936E+02
    -18.955  0.1519E+02  0.2959E+02
    -18.940  0.1506E+02  0.2981E+02
    -18.925  0.1493E+02  0.3003E+02
    -18.910  0.1478E+02  0.3025E+02
    -18.895  0.1464E+02  0.3047E+02
    -18.881  0.1450E+02  0.3068E+02
    -18.866  0.1437E+02  0.3090E+02
    -18.851  0.1425E+02  0.3111E+02
    -18.836  0.1414E+02  0.3132E+02
    -18.821  0.1404E+02  0.3153E+02
    -18.806  0.1395E+02  0.3174E+02
    -18.791  0.1388E+02  0.3194E+02
    -18.776  0.1383E+02  0.3215E+02
    -18.762  0.1378E+02  0.3235E+02
    -18.747  0.1375E+02  0.3256E+02
    -18.732  0.1372E+02  0.3276E+02
    -18.717  0.1371E+02  0.3296E+02
    -18.702  0.1370E+02  0.3317E+02
    -18.687  0.1371E+02  0.3337E+02
    -18.672  0.1372E+02  0.3357E+02
    -18.658  0.1375E+02  0.3378E+02
    -18.643  0.1378E+02  0.3398E+02
    -18.628  0.1383E+02  0.3419E+02
    -18.613  0.1388E+02  0.3440E+02
    -18.598  0.1395E+02  0.3460E+02
    -18.583  0.1403E+02  0.3481E+02
    -18.568  0.1412E+02  0.3502E+02
    -18.554  0.1422E+02  0.3523E+02
    -18.539  0.1432E+02  0.3545E+02
    -18.524  0.1444E+02  0.3566E+02
    -18.509  0.1455E+02  0.3588E+02
    -18.494  0.1467E+02  0.3609E+02
    -18.479  0.1478E+02  0.3631E+02
    -18.464  0.1488E+02  0.3653E+02
    -18.450  0.1497E+02  0.3676E+02
    -18.435  0.1505E+02  0.3698E+02
    -18.420  0.1511E+02  0.3721E+02
    -18.405  0.1515E+02  0.3743E+02
    -18.390  0.1517E+02  0.3766E+02
    -18.375  0.1518E+02  0.3788E+02
    -18.360  0.1516E+02  0.3811E+02
    -18.346  0.1512E+02  0.3833E+02
    -18.331  0.1507E+02  0.3856E+02
    -18.316  0.1500E+02  0.3878E+02
    -18.301  0.1492E+02  0.3900E+02
    -18.286  0.1483E+02  0.3922E+02
    -18.271  0.1474E+02  0.3944E+02
    -18.256  0.1466E+02  0.3966E+02
    -18.242  0.1457E+02  0.3987E+02
    -18.227  0.1450E+02  0.4009E+02
    -18.212  0.1443E+02  0.4030E+02
    -18.197  0.1438E+02  0.4052E+02
    -18.182  0.1434E+02  0.4073E+02
    -18.167  0.1431E+02  0.4094E+02
    -18.152  0.1430E+02  0.4116E+02
    -18.137  0.1431E+02  0.4137E+02
    -18.123  0.1432E+02  0.4158E+02
    -18.108  0.1435E+02  0.4179E+02
    -18.093  0.1438E+02  0.4201E+02
    -18.078  0.1442E+02  0.4222E+02
    -18.063  0.1446E+02  0.4244E+02
    -18.048  0.1450E+02  0.4265E+02
    -18.033  0.1454E+02  0.4287E+02
    -18.019  0.1457E+02  0.4309E+02
    -18.004  0.1460E+02  0.4330E+02
    -17.989  0.1462E+02  0.4352E+02
    -17.974  0.1463E+02  0.4374E+02
    -17.959  0.1464E+02  0.4395E+02
    -17.944  0.1464E+02  0.4417E+02
    -17.929  0.1464E+02  0.4439E+02
    -17.915  0.1463E+02  0.4461E+02
    -17.900  0.1464E+02  0.4482E+02
    -17.885  0.1464E+02  0.4504E+02
    -17.870  0.1466E+02  0.4526E+02
    -17.855  0.1469E+02  0.4548E+02
    -17.840  0.1473E+02  0.4570E+02
    -17.825  0.1478E+02  0.4592E+02
    -17.811  0.1486E+02  0.4614E+02
    -17.796  0.1495E+02  0.4636E+02
    -17.781  0.1505E+02  0.4658E+02
    -17.766  0.1517E+02  0.4681E+02
    -17.751  0.1529E+02  0.4704E+02
    -17.736  0.1542E+02  0.4726E+02
    -17.721  0.1556E+02  0.4750E+02
    -17.707  0.1569E+02  0.4773E+02
    -17.692  0.1581E+02  0.4796E+02
    -17.677  0.1591E+02  0.4820E+02
    -17.662  0.1600E+02  0.4844E+02
    -17.647  0.1607E+02  0.4868E+02
    -17.632  0.1611E+02  0.4892E+02
    -17.617  0.1613E+02  0.4916E+02
    -17.603  0.1611E+02  0.4940E+02
    -17.588  0.1607E+02  0.4963E+02
    -17.573  0.1601E+02  0.4987E+02
    -17.558  0.1592E+02  0.5011E+02
    -17.543  0.1581E+02  0.5034E+02
    -17.528  0.1569E+02  0.5058E+02
    -17.513  0.1557E+02  0.5081E+02
    -17.498  0.1544E+02  0.5104E+02
    -17.484  0.1531E+02  0.5127E+02
    -17.469  0.1519E+02  0.5149E+02
    -17.454  0.1508E+02  0.5172E+02
    -17.439  0.1499E+02  0.5194E+02
    -17.424  0.1492E+02  0.5216E+02
    -17.409  0.1487E+02  0.5238E+02
    -17.394  0.1484E+02  0.5260E+02
    -17.380  0.1483E+02  0.5282E+02
    -17.365  0.1484E+02  0.5304E+02
    -17.350  0.1488E+02  0.5326E+02
    -17.335  0.1492E+02  0.5348E+02
    -17.320  0.1498E+02  0.5371E+02
    -17.305  0.1505E+02  0.5393E+02
    -17.290  0.1513E+02  0.5416E+02
    -17.276  0.1521E+02  0.5438E+02
    -17.261  0.1528E+02  0.5461E+02
    -17.246  0.1535E+02  0.5484E+02
    -17.231  0.1542E+02  0.5507E+02
    -17.216  0.1547E+02  0.5530E+02
    -17.201  0.1551E+02  0.5553E+02
    -17.186  0.1555E+02  0.5576E+02
    -17.172  0.1556E+02  0.5599E+02
    -17.157  0.1557E+02  0.5622E+02
    -17.142  0.1557E+02  0.5645E+02
    -17.127  0.1555E+02  0.5668E+02
    -17.112  0.1553E+02  0.5691E+02
    -17.097  0.1550E+02  0.5714E+02
    -17.082  0.1547E+02  0.5737E+02
    -17.068  0.1544E+02  0.5760E+02
    -17.053  0.1540E+02  0.5783E+02
    -17.038  0.1537E+02  0.5806E+02
    -17.023  0.1534E+02  0.5829E+02
    -17.008  0.1531E+02  0.5852E+02
    -16.993  0.1528E+02  0.5874E+02
    -16.978  0.1524E+02  0.5897E+02
    -16.964  0.1521E+02  0.5920E+02
    -16.949  0.1518E+02  0.5942E+02
    -16.934  0.1515E+02  0.5965E+02
    -16.919  0.1511E+02  0.5987E+02
    -16.904  0.1507E+02  0.6010E+02
    -16.889  0.1503E+02  0.6032E+02
    -16.874  0.1499E+02  0.6054E+02
    -16.860  0.1495E+02  0.6076E+02
    -16.845  0.1491E+02  0.6099E+02
    -16.830  0.1487E+02  0.6121E+02
    -16.815  0.1484E+02  0.6143E+02
    -16.800  0.1482E+02  0.6165E+02
    -16.785  0.1482E+02  0.6187E+02
    -16.770  0.1482E+02  0.6209E+02
    -16.755  0.1485E+02  0.6231E+02
    -16.741  0.1490E+02  0.6253E+02
    -16.726  0.1496E+02  0.6275E+02
    -16.711  0.1505E+02  0.6298E+02
    -16.696  0.1515E+02  0.6320E+02
    -16.681  0.1527E+02  0.6343E+02
    -16.666  0.1541E+02  0.6366E+02
    -16.651  0.1555E+02  0.6389E+02
    -16.637  0.1571E+02  0.6412E+02
    -16.622  0.1587E+02  0.6436E+02
    -16.607  0.1602E+02  0.6459E+02
    -16.592  0.1617E+02  0.6483E+02
    -16.577  0.1631E+02  0.6508E+02
    -16.562  0.1644E+02  0.6532E+02
    -16.547  0.1655E+02  0.6557E+02
    -16.533  0.1664E+02  0.6581E+02
    -16.518  0.1671E+02  0.6606E+02
    -16.503  0.1676E+02  0.6631E+02
    -16.488  0.1678E+02  0.6656E+02
    -16.473  0.1678E+02  0.6681E+02
    -16.458  0.1677E+02  0.6706E+02
    -16.443  0.1673E+02  0.6731E+02
    -16.429  0.1668E+02  0.6756E+02
    -16.414  0.1661E+02  0.6780E+02
    -16.399  0.1653E+02  0.6805E+02
    -16.384  0.1644E+02  0.6829E+02
    -16.369  0.1633E+02  0.6854E+02
    -16.354  0.1622E+02  0.6878E+02
    -16.339  0.1610E+02  0.6902E+02
    -16.325  0.1598E+02  0.6925E+02
    -16.310  0.1585E+02  0.6949E+02
    -16.295  0.1571E+02  0.6972E+02
    -16.280  0.1558E+02  0.6995E+02
    -16.265  0.1544E+02  0.7018E+02
    -16.250  0.1531E+02  0.7041E+02
    -16.235  0.1519E+02  0.7064E+02
    -16.221  0.1508E+02  0.7086E+02
    -16.206  0.1499E+02  0.7108E+02
    -16.191  0.1493E+02  0.7131E+02
    -16.176  0.1491E+02  0.7153E+02
    -16.161  0.1492E+02  0.7175E+02
    -16.146  0.1498E+02  0.7197E+02
    -16.131  0.1509E+02  0.7220E+02
    -16.116  0.1525E+02  0.7242E+02
    -16.102  0.1546E+02  0.7265E+02
    -16.087  0.1573E+02  0.7289E+02
    -16.072  0.1604E+02  0.7312E+02
    -16.057  0.1639E+02  0.7337E+02
    -16.042  0.1678E+02  0.7362E+02
    -16.027  0.1720E+02  0.7387E+02
    -16.012  0.1763E+02  0.7413E+02
    -15.998  0.1806E+02  0.7440E+02
    -15.983  0.1847E+02  0.7468E+02
    -15.968  0.1887E+02  0.7496E+02
    -15.953  0.1923E+02  0.7524E+02
    -15.938  0.1955E+02  0.7553E+02
    -15.923  0.1982E+02  0.7583E+02
    -15.908  0.2003E+02  0.7613E+02
    -15.894  0.2018E+02  0.7643E+02
    -15.879  0.2027E+02  0.7673E+02
    -15.864  0.2029E+02  0.7703E+02
    -15.849  0.2026E+02  0.7733E+02
    -15.834  0.2017E+02  0.7763E+02
    -15.819  0.2003E+02  0.7793E+02
    -15.804  0.1984E+02  0.7822E+02
    -15.790  0.1960E+02  0.7851E+02
    -15.775  0.1933E+02  0.7880E+02
    -15.760  0.1903E+02  0.7908E+02
    -15.745  0.1870E+02  0.7936E+02
    -15.730  0.1834E+02  0.7963E+02
    -15.715  0.1796E+02  0.7990E+02
    -15.700  0.1757E+02  0.8016E+02
    -15.686  0.1715E+02  0.8042E+02
    -15.671  0.1673E+02  0.8067E+02
    -15.656  0.1629E+02  0.8091E+02
    -15.641  0.1585E+02  0.8114E+02
    -15.626  0.1540E+02  0.8137E+02
    -15.611  0.1495E+02  0.8159E+02
    -15.596  0.1450E+02  0.8181E+02
    -15.582  0.1405E+02  0.8202E+02
    -15.567  0.1361E+02  0.8222E+02
    -15.552  0.1319E+02  0.8242E+02
    -15.537  0.1278E+02  0.8261E+02
    -15.522  0.1239E+02  0.8279E+02
    -15.507  0.1203E+02  0.8297E+02
    -15.492  0.1171E+02  0.8314E+02
    -15.477  0.1141E+02  0.8331E+02
    -15.463  0.1115E+02  0.8348E+02
    -15.448  0.1094E+02  0.8364E+02
    -15.433  0.1076E+02  0.8380E+02
    -15.418  0.1063E+02  0.8396E+02
    -15.403  0.1053E+02  0.8412E+02
    -15.388  0.1048E+02  0.8427E+02
    -15.373  0.1047E+02  0.8443E+02
    -15.359  0.1050E+02  0.8458E+02
    -15.344  0.1056E+02  0.8474E+02
    -15.329  0.1064E+02  0.8490E+02
    -15.314  0.1076E+02  0.8506E+02
    -15.299  0.1090E+02  0.8522E+02
    -15.284  0.1105E+02  0.8538E+02
    -15.269  0.1121E+02  0.8555E+02
    -15.255  0.1137E+02  0.8572E+02
    -15.240  0.1153E+02  0.8589E+02
    -15.225  0.1169E+02  0.8606E+02
    -15.210  0.1182E+02  0.8624E+02
    -15.195  0.1194E+02  0.8642E+02
    -15.180  0.1204E+02  0.8660E+02
    -15.165  0.1211E+02  0.8678E+02
    -15.151  0.1216E+02  0.8696E+02
    -15.136  0.1217E+02  0.8714E+02
    -15.121  0.1215E+02  0.8732E+02
    -15.106  0.1211E+02  0.8750E+02
    -15.091  0.1203E+02  0.8768E+02
    -15.076  0.1194E+02  0.8785E+02
    -15.061  0.1182E+02  0.8803E+02
    -15.047  0.1168E+02  0.8820E+02
    -15.032  0.1152E+02  0.8838E+02
    -15.017  0.1136E+02  0.8854E+02
    -15.002  0.1120E+02  0.8871E+02
    -14.987  0.1104E+02  0.8887E+02
    -14.972  0.1088E+02  0.8904E+02
    -14.957  0.1073E+02  0.8920E+02
    -14.943  0.1060E+02  0.8935E+02
    -14.928  0.1048E+02  0.8951E+02
    -14.913  0.1039E+02  0.8966E+02
    -14.898  0.1033E+02  0.8982E+02
    -14.883  0.1030E+02  0.8997E+02
    -14.868  0.1030E+02  0.9012E+02
    -14.853  0.1033E+02  0.9028E+02
    -14.838  0.1040E+02  0.9043E+02
    -14.824  0.1050E+02  0.9059E+02
    -14.809  0.1064E+02  0.9075E+02
    -14.794  0.1081E+02  0.9091E+02
    -14.779  0.1101E+02  0.9107E+02
    -14.764  0.1124E+02  0.9124E+02
    -14.749  0.1149E+02  0.9141E+02
    -14.734  0.1175E+02  0.9158E+02
    -14.720  0.1204E+02  0.9176E+02
    -14.705  0.1233E+02  0.9194E+02
    -14.690  0.1262E+02  0.9213E+02
    -14.675  0.1291E+02  0.9232E+02
    -14.660  0.1319E+02  0.9252E+02
    -14.645  0.1345E+02  0.9272E+02
    -14.630  0.1369E+02  0.9292E+02
    -14.616  0.1391E+02  0.9313E+02
    -14.601  0.1410E+02  0.9334E+02
    -14.586  0.1426E+02  0.9355E+02
    -14.571  0.1438E+02  0.9376E+02
    -14.556  0.1447E+02  0.9398E+02
    -14.541  0.1453E+02  0.9420E+02
    -14.526  0.1456E+02  0.9441E+02
    -14.512  0.1456E+02  0.9463E+02
    -14.497  0.1453E+02  0.9484E+02
    -14.482  0.1449E+02  0.9506E+02
    -14.467  0.1444E+02  0.9527E+02
    -14.452  0.1438E+02  0.9549E+02
    -14.437  0.1432E+02  0.9570E+02
    -14.422  0.1427E+02  0.9591E+02
    -14.408  0.1423E+02  0.9612E+02
    -14.393  0.1422E+02  0.9634E+02
    -14.378  0.1423E+02  0.9655E+02
    -14.363  0.1427E+02  0.9676E+02
    -14.348  0.1434E+02  0.9697E+02
    -14.333  0.1445E+02  0.9719E+02
    -14.318  0.1459E+02  0.9740E+02
    -14.304  0.1477E+02  0.9762E+02
    -14.289  0.1497E+02  0.9785E+02
    -14.274  0.1519E+02  0.9807E+02
    -14.259  0.1543E+02  0.9830E+02
    -14.244  0.1569E+02  0.9853E+02
    -14.229  0.1595E+02  0.9877E+02
    -14.214  0.1620E+02  0.9901E+02
    -14.199  0.1644E+02  0.9926E+02
    -14.185  0.1667E+02  0.9950E+02
    -14.170  0.1687E+02  0.9975E+02
    -14.155  0.1705E+02  0.1000E+03
    -14.140  0.1719E+02  0.1003E+03
    -14.125  0.1730E+02  0.1005E+03
    -14.110  0.1737E+02  0.1008E+03
    -14.095  0.1742E+02  0.1010E+03
    -14.081  0.1743E+02  0.1013E+03
    -14.066  0.1741E+02  0.1016E+03
    -14.051  0.1737E+02  0.1018E+03
    -14.036  0.1732E+02  0.1021E+03
    -14.021  0.1725E+02  0.1023E+03
    -14.006  0.1717E+02  0.1026E+03
    -13.991  0.1710E+02  0.1028E+03
    -13.977  0.1703E+02  0.1031E+03
    -13.962  0.1697E+02  0.1033E+03
    -13.947  0.1692E+02  0.1036E+03
    -13.932  0.1688E+02  0.1038E+03
    -13.917  0.1687E+02  0.1041E+03
    -13.902  0.1688E+02  0.1043E+03
    -13.887  0.1690E+02  0.1046E+03
    -13.873  0.1695E+02  0.1048E+03
    -13.858  0.1701E+02  0.1051E+03
    -13.843  0.1709E+02  0.1054E+03
    -13.828  0.1717E+02  0.1056E+03
    -13.813  0.1727E+02  0.1059E+03
    -13.798  0.1738E+02  0.1061E+03
    -13.783  0.1748E+02  0.1064E+03
    -13.769  0.1759E+02  0.1066E+03
    -13.754  0.1768E+02  0.1069E+03
    -13.739  0.1777E+02  0.1072E+03
    -13.724  0.1785E+02  0.1074E+03
    -13.709  0.1791E+02  0.1077E+03
    -13.694  0.1795E+02  0.1080E+03
    -13.679  0.1798E+02  0.1082E+03
    -13.665  0.1798E+02  0.1085E+03
    -13.650  0.1797E+02  0.1088E+03
    -13.635  0.1793E+02  0.1090E+03
    -13.620  0.1787E+02  0.1093E+03
    -13.605  0.1780E+02  0.1096E+03
    -13.590  0.1771E+02  0.1098E+03
    -13.575  0.1760E+02  0.1101E+03
    -13.560  0.1748E+02  0.1104E+03
    -13.546  0.1734E+02  0.1106E+03
    -13.531  0.1720E+02  0.1109E+03
    -13.516  0.1705E+02  0.1111E+03
    -13.501  0.1689E+02  0.1114E+03
    -13.486  0.1673E+02  0.1116E+03
    -13.471  0.1656E+02  0.1119E+03
    -13.456  0.1640E+02  0.1121E+03
    -13.442  0.1624E+02  0.1124E+03
    -13.427  0.1609E+02  0.1126E+03
    -13.412  0.1595E+02  0.1128E+03
    -13.397  0.1582E+02  0.1131E+03
    -13.382  0.1570E+02  0.1133E+03
    -13.367  0.1559E+02  0.1135E+03
    -13.352  0.1551E+02  0.1138E+03
    -13.338  0.1544E+02  0.1140E+03
    -13.323  0.1538E+02  0.1142E+03
    -13.308  0.1535E+02  0.1144E+03
    -13.293  0.1534E+02  0.1147E+03
    -13.278  0.1534E+02  0.1149E+03
    -13.263  0.1536E+02  0.1151E+03
    -13.248  0.1539E+02  0.1154E+03
    -13.234  0.1544E+02  0.1156E+03
    -13.219  0.1551E+02  0.1158E+03
    -13.204  0.1558E+02  0.1160E+03
    -13.189  0.1567E+02  0.1163E+03
    -13.174  0.1577E+02  0.1165E+03
    -13.159  0.1587E+02  0.1168E+03
    -13.144  0.1598E+02  0.1170E+03
    -13.130  0.1610E+02  0.1172E+03
    -13.115  0.1621E+02  0.1175E+03
    -13.100  0.1633E+02  0.1177E+03
    -13.085  0.1645E+02  0.1180E+03
    -13.070  0.1657E+02  0.1182E+03
    -13.055  0.1668E+02  0.1184E+03
    -13.040  0.1678E+02  0.1187E+03
    -13.026  0.1687E+02  0.1189E+03
    -13.011  0.1694E+02  0.1192E+03
    -12.996  0.1699E+02  0.1195E+03
    -12.981  0.1701E+02  0.1197E+03
    -12.966  0.1702E+02  0.1200E+03
    -12.951  0.1699E+02  0.1202E+03
    -12.936  0.1693E+02  0.1205E+03
    -12.921  0.1684E+02  0.1207E+03
    -12.907  0.1672E+02  0.1210E+03
    -12.892  0.1657E+02  0.1212E+03
    -12.877  0.1640E+02  0.1215E+03
    -12.862  0.1619E+02  0.1217E+03
    -12.847  0.1596E+02  0.1219E+03
    -12.832  0.1571E+02  0.1222E+03
    -12.817  0.1545E+02  0.1224E+03
    -12.803  0.1517E+02  0.1226E+03
    -12.788  0.1489E+02  0.1228E+03
    -12.773  0.1460E+02  0.1231E+03
    -12.758  0.1431E+02  0.1233E+03
    -12.743  0.1404E+02  0.1235E+03
    -12.728  0.1377E+02  0.1237E+03
    -12.713  0.1352E+02  0.1239E+03
    -12.699  0.1328E+02  0.1241E+03
    -12.684  0.1307E+02  0.1243E+03
    -12.669  0.1288E+02  0.1245E+03
    -12.654  0.1272E+02  0.1247E+03
    -12.639  0.1259E+02  0.1248E+03
    -12.624  0.1249E+02  0.1250E+03
    -12.609  0.1242E+02  0.1252E+03
    -12.595  0.1237E+02  0.1254E+03
    -12.580  0.1236E+02  0.1256E+03
    -12.565  0.1237E+02  0.1258E+03
    -12.550  0.1241E+02  0.1259E+03
    -12.535  0.1246E+02  0.1261E+03
    -12.520  0.1254E+02  0.1263E+03
    -12.505  0.1263E+02  0.1265E+03
    -12.491  0.1274E+02  0.1267E+03
    -12.476  0.1286E+02  0.1269E+03
    -12.461  0.1298E+02  0.1271E+03
    -12.446  0.1311E+02  0.1273E+03
    -12.431  0.1324E+02  0.1275E+03
    -12.416  0.1337E+02  0.1277E+03
    -12.401  0.1350E+02  0.1279E+03
    -12.387  0.1362E+02  0.1281E+03
    -12.372  0.1375E+02  0.1283E+03
    -12.357  0.1386E+02  0.1285E+03
    -12.342  0.1397E+02  0.1287E+03
    -12.327  0.1408E+02  0.1289E+03
    -12.312  0.1418E+02  0.1291E+03
    -12.297  0.1428E+02  0.1293E+03
    -12.283  0.1437E+02  0.1295E+03
    -12.268  0.1446E+02  0.1298E+03
    -12.253  0.1455E+02  0.1300E+03
    -12.238  0.1463E+02  0.1302E+03
    -12.223  0.1472E+02  0.1304E+03
    -12.208  0.1480E+02  0.1306E+03
    -12.193  0.1488E+02  0.1308E+03
    -12.178  0.1496E+02  0.1311E+03
    -12.164  0.1504E+02  0.1313E+03
    -12.149  0.1512E+02  0.1315E+03
    -12.134  0.1520E+02  0.1317E+03
    -12.119  0.1528E+02  0.1320E+03
    -12.104  0.1535E+02  0.1322E+03
    -12.089  0.1543E+02  0.1324E+03
    -12.074  0.1550E+02  0.1327E+03
    -12.060  0.1558E+02  0.1329E+03
    -12.045  0.1565E+02  0.1331E+03
    -12.030  0.1573E+02  0.1334E+03
    -12.015  0.1580E+02  0.1336E+03
    -12.000  0.1588E+02  0.1338E+03
    -11.985  0.1597E+02  0.1341E+03
    -11.970  0.1606E+02  0.1343E+03
    -11.956  0.1615E+02  0.1345E+03
    -11.941  0.1625E+02  0.1348E+03
    -11.926  0.1635E+02  0.1350E+03
    -11.911  0.1645E+02  0.1353E+03
    -11.896  0.1656E+02  0.1355E+03
    -11.881  0.1666E+02  0.1358E+03
    -11.866  0.1676E+02  0.1360E+03
    -11.852  0.1686E+02  0.1363E+03
    -11.837  0.1695E+02  0.1365E+03
    -11.822  0.1703E+02  0.1368E+03
    -11.807  0.1709E+02  0.1370E+03
    -11.792  0.1715E+02  0.1373E+03
    -11.777  0.1719E+02  0.1375E+03
    -11.762  0.1721E+02  0.1378E+03
    -11.748  0.1722E+02  0.1380E+03
    -11.733  0.1721E+02  0.1383E+03
    -11.718  0.1719E+02  0.1386E+03
    -11.703  0.1716E+02  0.1388E+03
    -11.688  0.1711E+02  0.1391E+03
    -11.673  0.1705E+02  0.1393E+03
    -11.658  0.1699E+02  0.1396E+03
    -11.644  0.1692E+02  0.1398E+03
    -11.629  0.1684E+02  0.1401E+03
    -11.614  0.1676E+02  0.1403E+03
    -11.599  0.1667E+02  0.1406E+03
    -11.584  0.1658E+02  0.1408E+03
    -11.569  0.1649E+02  0.1411E+03
    -11.554  0.1640E+02  0.1413E+03
    -11.539  0.1631E+02  0.1415E+03
    -11.525  0.1621E+02  0.1418E+03
    -11.510  0.1612E+02  0.1420E+03
    -11.495  0.1602E+02  0.1423E+03
    -11.480  0.1593E+02  0.1425E+03
    -11.465  0.1584E+02  0.1427E+03
    -11.450  0.1575E+02  0.1430E+03
    -11.435  0.1567E+02  0.1432E+03
    -11.421  0.1561E+02  0.1434E+03
    -11.406  0.1555E+02  0.1437E+03
    -11.391  0.1551E+02  0.1439E+03
    -11.376  0.1549E+02  0.1441E+03
    -11.361  0.1549E+02  0.1444E+03
    -11.346  0.1550E+02  0.1446E+03
    -11.331  0.1554E+02  0.1448E+03
    -11.317  0.1559E+02  0.1451E+03
    -11.302  0.1566E+02  0.1453E+03
    -11.287  0.1575E+02  0.1455E+03
    -11.272  0.1586E+02  0.1458E+03
    -11.257  0.1598E+02  0.1460E+03
    -11.242  0.1611E+02  0.1462E+03
    -11.227  0.1626E+02  0.1465E+03
    -11.213  0.1641E+02  0.1467E+03
    -11.198  0.1656E+02  0.1470E+03
    -11.183  0.1671E+02  0.1472E+03
    -11.168  0.1687E+02  0.1475E+03
    -11.153  0.1703E+02  0.1477E+03
    -11.138  0.1718E+02  0.1480E+03
    -11.123  0.1732E+02  0.1482E+03
    -11.109  0.1746E+02  0.1485E+03
    -11.094  0.1759E+02  0.1487E+03
    -11.079  0.1771E+02  0.1490E+03
    -11.064  0.1782E+02  0.1493E+03
    -11.049  0.1791E+02  0.1495E+03
    -11.034  0.1799E+02  0.1498E+03
    -11.019  0.1805E+02  0.1501E+03
    -11.005  0.1810E+02  0.1503E+03
    -10.990  0.1813E+02  0.1506E+03
    -10.975  0.1814E+02  0.1509E+03