 138 138   0   0
  0.2657342E+02  0.2130000E-08  0.1721659E-08  0.1000000E-08  0.5000000E-15
  1.000000000000000E-004
  CAR 
 unknown system                          
      6.61981346    -22.84311041 2000     -1.31421748      1.00000000
    -22.843  0.0000E+00  0.0000E+00
    -22.828  0.0000E+00  0.0000E+00
    -22.814  0.0000E+00  0.0000E+00
    -22.799  0.0000E+00  0.0000E+00
    -22.784  0.0000E+00  0.0000E+00
    -22.769  0.0000E+00  0.0000E+00
    -22.755  0.0000E+00  0.0000E+00
    -22.740  0.0000E+00  0.0000E+00
    -22.725  0.0000E+00  0.0000E+00
    -22.710  0.0000E+00  0.0000E+00
    -22.696  0.0000E+00  0.0000E+00
    -22.681  0.0000E+00  0.0000E+00
    -22.666  0.0000E+00  0.0000E+00
    -22.652  0.0000E+00  0.0000E+00
    -22.637  0.0000E+00  0.0000E+00
    -22.622  0.0000E+00  0.0000E+00
    -22.607  0.0000E+00  0.0000E+00
    -22.593  0.0000E+00  0.0000E+00
    -22.578  0.0000E+00  0.0000E+00
    -22.563  0.0000E+00  0.0000E+00
    -22.548  0.0000E+00  0.0000E+00
    -22.534  0.0000E+00  0.0000E+00
    -22.519  0.0000E+00  0.0000E+00
    -22.504  0.0000E+00  0.0000E+00
    -22.489  0.0000E+00  0.0000E+00
    -22.475  0.0000E+00  0.0000E+00
    -22.460  0.0000E+00  0.0000E+00
    -22.445  0.0000E+00  0.0000E+00
    -22.430  0.0000E+00  0.0000E+00
    -22.416  0.0000E+00  0.0000E+00
    -22.401  0.0000E+00  0.0000E+00
    -22.386  0.0000E+00  0.0000E+00
    -22.371  0.0000E+00  0.0000E+00
    -22.357  0.0000E+00  0.0000E+00
    -22.342  0.0000E+00  0.0000E+00
    -22.327  0.0000E+00  0.0000E+00
    -22.313  0.0000E+00  0.0000E+00
    -22.298  0.0000E+00  0.0000E+00
    -22.283  0.0000E+00  0.0000E+00
    -22.268  0.0000E+00  0.0000E+00
    -22.254  0.0000E+00  0.0000E+00
    -22.239  0.0000E+00  0.0000E+00
    -22.224  0.0000E+00  0.0000E+00
    -22.209  0.0000E+00  0.0000E+00
    -22.195  0.0000E+00  0.0000E+00
    -22.180  0.0000E+00  0.0000E+00
    -22.165  0.0000E+00  0.0000E+00
    -22.150  0.0000E+00  0.0000E+00
    -22.136  0.0000E+00  0.0000E+00
    -22.121  0.0000E+00  0.0000E+00
    -22.106  0.0000E+00  0.0000E+00
    -22.091  0.0000E+00  0.0000E+00
    -22.077  0.0000E+00  0.0000E+00
    -22.062  0.0000E+00  0.0000E+00
    -22.047  0.0000E+00  0.0000E+00
    -22.032  0.0000E+00  0.0000E+00
    -22.018  0.8370E-15  0.1234E-16
    -22.003  0.2511E-14  0.4934E-16
    -21.988  0.4185E-14  0.1110E-15
    -21.974  0.9207E-14  0.2467E-15
    -21.959  0.2762E-13  0.6538E-15
    -21.944  0.5859E-13  0.1517E-14
    -21.929  0.1339E-12  0.3491E-14
    -21.915  0.3005E-12  0.7920E-14
    -21.900  0.6671E-12  0.1775E-13
    -21.885  0.1471E-11  0.3944E-13
    -21.870  0.3212E-11  0.8678E-13
    -21.856  0.6931E-11  0.1889E-12
    -21.841  0.1478E-10  0.4068E-12
    -21.826  0.3123E-10  0.8671E-12
    -21.811  0.6525E-10  0.1829E-11
    -21.797  0.1349E-09  0.3817E-11
    -21.782  0.2759E-09  0.7884E-11
    -21.767  0.5584E-09  0.1611E-10
    -21.752  0.1118E-08  0.3260E-10
    -21.738  0.2216E-08  0.6525E-10
    -21.723  0.4344E-08  0.1293E-09
    -21.708  0.8426E-08  0.2535E-09
    -21.693  0.1617E-07  0.4918E-09
    -21.679  0.3071E-07  0.9445E-09
    -21.664  0.5771E-07  0.1795E-08
    -21.649  0.1073E-06  0.3377E-08
    -21.635  0.1974E-06  0.6287E-08
    -21.620  0.3594E-06  0.1158E-07
    -21.605  0.6474E-06  0.2113E-07
    -21.590  0.1154E-05  0.3813E-07
    -21.576  0.2035E-05  0.6813E-07
    -21.561  0.3552E-05  0.1205E-06
    -21.546  0.6134E-05  0.2109E-06
    -21.531  0.1048E-04  0.3654E-06
    -21.517  0.1773E-04  0.6267E-06
    -21.502  0.2966E-04  0.1064E-05
    -21.487  0.4912E-04  0.1788E-05
    -21.472  0.8049E-04  0.2974E-05
    -21.458  0.1305E-03  0.4898E-05
    -21.443  0.2095E-03  0.7985E-05
    -21.428  0.3327E-03  0.1289E-04
    -21.413  0.5228E-03  0.2059E-04
    -21.399  0.8132E-03  0.3258E-04
    -21.384  0.1252E-02  0.5103E-04
    -21.369  0.1907E-02  0.7913E-04
    -21.354  0.2875E-02  0.1215E-03
    -21.340  0.4290E-02  0.1847E-03
    -21.325  0.6336E-02  0.2781E-03
    -21.310  0.9263E-02  0.4147E-03
    -21.296  0.1340E-01  0.6122E-03
    -21.281  0.1920E-01  0.8951E-03
    -21.266  0.2721E-01  0.1296E-02
    -21.251  0.3819E-01  0.1859E-02
    -21.237  0.5305E-01  0.2641E-02
    -21.222  0.7296E-01  0.3716E-02
    -21.207  0.9934E-01  0.5181E-02
    -21.192  0.1339E+00  0.7154E-02
    -21.178  0.1787E+00  0.9788E-02
    -21.163  0.2362E+00  0.1327E-01
    -21.148  0.3090E+00  0.1782E-01
    -21.133  0.4004E+00  0.2372E-01
    -21.119  0.5138E+00  0.3130E-01
    -21.104  0.6529E+00  0.4092E-01
    -21.089  0.8218E+00  0.5303E-01
    -21.074  0.1025E+01  0.6813E-01
    -21.060  0.1265E+01  0.8678E-01
    -21.045  0.1548E+01  0.1096E+00
    -21.030  0.1877E+01  0.1373E+00
    -21.015  0.2255E+01  0.1705E+00
    -21.001  0.2685E+01  0.2101E+00
    -20.986  0.3168E+01  0.2568E+00
    -20.971  0.3705E+01  0.3114E+00
    -20.957  0.4297E+01  0.3747E+00
    -20.942  0.4941E+01  0.4475E+00
    -20.927  0.5634E+01  0.5306E+00
    -20.912  0.6372E+01  0.6245E+00
    -20.898  0.7149E+01  0.7298E+00
    -20.883  0.7959E+01  0.8472E+00
    -20.868  0.8794E+01  0.9768E+00
    -20.853  0.9646E+01  0.1119E+01
    -20.839  0.1050E+02  0.1274E+01
    -20.824  0.1136E+02  0.1441E+01
    -20.809  0.1221E+02  0.1621E+01
    -20.794  0.1303E+02  0.1813E+01
    -20.780  0.1383E+02  0.2017E+01
    -20.765  0.1460E+02  0.2232E+01
    -20.750  0.1532E+02  0.2458E+01
    -20.735  0.1600E+02  0.2694E+01
    -20.721  0.1662E+02  0.2939E+01
    -20.706  0.1720E+02  0.3192E+01
    -20.691  0.1772E+02  0.3454E+01
    -20.677  0.1820E+02  0.3722E+01
    -20.662  0.1862E+02  0.3996E+01
    -20.647  0.1899E+02  0.4276E+01
    -20.632  0.1932E+02  0.4561E+01
    -20.618  0.1961E+02  0.4850E+01
    -20.603  0.1986E+02  0.5143E+01
    -20.588  0.2007E+02  0.5438E+01
    -20.573  0.2025E+02  0.5737E+01
    -20.559  0.2040E+02  0.6038E+01
    -20.544  0.2053E+02  0.6340E+01
    -20.529  0.2064E+02  0.6644E+01
    -20.514  0.2072E+02  0.6950E+01
    -20.500  0.2079E+02  0.7256E+01
    -20.485  0.2084E+02  0.7563E+01
    -20.470  0.2088E+02  0.7871E+01
    -20.455  0.2090E+02  0.8179E+01
    -20.441  0.2092E+02  0.8487E+01
    -20.426  0.2093E+02  0.8796E+01
    -20.411  0.2093E+02  0.9104E+01
    -20.396  0.2093E+02  0.9413E+01
    -20.382  0.2093E+02  0.9722E+01
    -20.367  0.2093E+02  0.1003E+02
    -20.352  0.2094E+02  0.1034E+02
    -20.338  0.2095E+02  0.1065E+02
    -20.323  0.2096E+02  0.1096E+02
    -20.308  0.2098E+02  0.1127E+02
    -20.293  0.2100E+02  0.1158E+02
    -20.279  0.2103E+02  0.1188E+02
    -20.264  0.2106E+02  0.1220E+02
    -20.249  0.2109E+02  0.1251E+02
    -20.234  0.2112E+02  0.1282E+02
    -20.220  0.2114E+02  0.1313E+02
    -20.205  0.2116E+02  0.1344E+02
    -20.190  0.2116E+02  0.1375E+02
    -20.175  0.2116E+02  0.1406E+02
    -20.161  0.2115E+02  0.1438E+02
    -20.146  0.2113E+02  0.1469E+02
    -20.131  0.2109E+02  0.1500E+02
    -20.116  0.2105E+02  0.1531E+02
    -20.102  0.2100E+02  0.1562E+02
    -20.087  0.2095E+02  0.1593E+02
    -20.072  0.2091E+02  0.1624E+02
    -20.057  0.2087E+02  0.1654E+02
    -20.043  0.2083E+02  0.1685E+02
    -20.028  0.2081E+02  0.1716E+02
    -20.013  0.2081E+02  0.1746E+02
    -19.999  0.2083E+02  0.1777E+02
    -19.984  0.2086E+02  0.1808E+02
    -19.969  0.2092E+02  0.1839E+02
    -19.954  0.2099E+02  0.1870E+02
    -19.940  0.2108E+02  0.1901E+02
    -19.925  0.2118E+02  0.1932E+02
    -19.910  0.2129E+02  0.1963E+02
    -19.895  0.2140E+02  0.1995E+02
    -19.881  0.2150E+02  0.2026E+02
    -19.866  0.2160E+02  0.2058E+02
    -19.851  0.2168E+02  0.2090E+02
    -19.836  0.2175E+02  0.2122E+02
    -19.822  0.2179E+02  0.2154E+02
    -19.807  0.2180E+02  0.2187E+02
    -19.792  0.2179E+02  0.2219E+02
    -19.777  0.2175E+02  0.2251E+02
    -19.763  0.2168E+02  0.2283E+02
    -19.748  0.2159E+02  0.2314E+02
    -19.733  0.2148E+02  0.2346E+02
    -19.718  0.2135E+02  0.2378E+02
    -19.704  0.2122E+02  0.2409E+02
    -19.689  0.2109E+02  0.2440E+02
    -19.674  0.2096E+02  0.2471E+02
    -19.660  0.2085E+02  0.2502E+02
    -19.645  0.2075E+02  0.2532E+02
    -19.630  0.2068E+02  0.2563E+02
    -19.615  0.2063E+02  0.2593E+02
    -19.601  0.2060E+02  0.2623E+02
    -19.586  0.2061E+02  0.2654E+02
    -19.571  0.2063E+02  0.2684E+02
    -19.556  0.2069E+02  0.2715E+02
    -19.542  0.2076E+02  0.2745E+02
    -19.527  0.2085E+02  0.2776E+02
    -19.512  0.2096E+02  0.2807E+02
    -19.497  0.2107E+02  0.2838E+02
    -19.483  0.2119E+02  0.2869E+02
    -19.468  0.2131E+02  0.2901E+02
    -19.453  0.2143E+02  0.2932E+02
    -19.438  0.2154E+02  0.2964E+02
    -19.424  0.2164E+02  0.2996E+02
    -19.409  0.2174E+02  0.3028E+02
    -19.394  0.2183E+02  0.3060E+02
    -19.379  0.2190E+02  0.3092E+02
    -19.365  0.2196E+02  0.3125E+02
    -19.350  0.2201E+02  0.3157E+02
    -19.335  0.2204E+02  0.3190E+02
    -19.321  0.2206E+02  0.3222E+02
    -19.306  0.2206E+02  0.3255E+02
    -19.291  0.2204E+02  0.3287E+02
    -19.276  0.2201E+02  0.3320E+02
    -19.262  0.2195E+02  0.3352E+02
    -19.247  0.2188E+02  0.3384E+02
    -19.232  0.2179E+02  0.3416E+02
    -19.217  0.2168E+02  0.3448E+02
    -19.203  0.2156E+02  0.3480E+02
    -19.188  0.2143E+02  0.3512E+02
    -19.173  0.2128E+02  0.3543E+02
    -19.158  0.2114E+02  0.3574E+02
    -19.144  0.2100E+02  0.3605E+02
    -19.129  0.2086E+02  0.3636E+02
    -19.114  0.2075E+02  0.3666E+02
    -19.099  0.2065E+02  0.3697E+02
    -19.085  0.2058E+02  0.3727E+02
    -19.070  0.2055E+02  0.3757E+02
    -19.055  0.2055E+02  0.3788E+02
    -19.040  0.2058E+02  0.3818E+02
    -19.026  0.2066E+02  0.3848E+02
    -19.011  0.2077E+02  0.3879E+02
    -18.996  0.2091E+02  0.3910E+02
    -18.982  0.2108E+02  0.3941E+02
    -18.967  0.2127E+02  0.3972E+02
    -18.952  0.2148E+02  0.4004E+02
    -18.937  0.2169E+02  0.4036E+02
    -18.923  0.2189E+02  0.4068E+02
    -18.908  0.2209E+02  0.4101E+02
    -18.893  0.2226E+02  0.4134E+02
    -18.878  0.2241E+02  0.4167E+02
    -18.864  0.2253E+02  0.4200E+02
    -18.849  0.2262E+02  0.4233E+02
    -18.834  0.2267E+02  0.4267E+02
    -18.819  0.2268E+02  0.4300E+02
    -18.805  0.2266E+02  0.4333E+02
    -18.790  0.2260E+02  0.4367E+02
    -18.775  0.2252E+02  0.4400E+02
    -18.760  0.2241E+02  0.4433E+02
    -18.746  0.2229E+02  0.4466E+02
    -18.731  0.2215E+02  0.4498E+02
    -18.716  0.2200E+02  0.4531E+02
    -18.701  0.2185E+02  0.4563E+02
    -18.687  0.2171E+02  0.4595E+02
    -18.672  0.2156E+02  0.4627E+02
    -18.657  0.2143E+02  0.4658E+02
    -18.643  0.2131E+02  0.4690E+02
    -18.628  0.2120E+02  0.4721E+02
    -18.613  0.2110E+02  0.4752E+02
    -18.598  0.2102E+02  0.4783E+02
    -18.584  0.2095E+02  0.4814E+02
    -18.569  0.2089E+02  0.4845E+02
    -18.554  0.2085E+02  0.4876E+02
    -18.539  0.2081E+02  0.4906E+02
    -18.525  0.2078E+02  0.4937E+02
    -18.510  0.2077E+02  0.4968E+02
    -18.495  0.2076E+02  0.4998E+02
    -18.480  0.2076E+02  0.5029E+02
    -18.466  0.2078E+02  0.5059E+02
    -18.451  0.2081E+02  0.5090E+02
    -18.436  0.2086E+02  0.5121E+02
    -18.421  0.2092E+02  0.5152E+02
    -18.407  0.2101E+02  0.5183E+02
    -18.392  0.2112E+02  0.5214E+02
    -18.377  0.2126E+02  0.5245E+02
    -18.363  0.2142E+02  0.5277E+02
    -18.348  0.2161E+02  0.5308E+02
    -18.333  0.2182E+02  0.5341E+02
    -18.318  0.2205E+02  0.5373E+02
    -18.304  0.2229E+02  0.5406E+02
    -18.289  0.2254E+02  0.5439E+02
    -18.274  0.2280E+02  0.5473E+02
    -18.259  0.2304E+02  0.5507E+02
    -18.245  0.2327E+02  0.5541E+02
    -18.230  0.2348E+02  0.5576E+02
    -18.215  0.2365E+02  0.5610E+02
    -18.200  0.2378E+02  0.5646E+02
    -18.186  0.2387E+02  0.5681E+02
    -18.171  0.2390E+02  0.5716E+02
    -18.156  0.2387E+02  0.5751E+02
    -18.141  0.2379E+02  0.5786E+02
    -18.127  0.2364E+02  0.5821E+02
    -18.112  0.2344E+02  0.5856E+02
    -18.097  0.2320E+02  0.5890E+02
    -18.082  0.2290E+02  0.5924E+02
    -18.068  0.2257E+02  0.5957E+02
    -18.053  0.2221E+02  0.5990E+02
    -18.038  0.2184E+02  0.6022E+02
    -18.024  0.2145E+02  0.6053E+02
    -18.009  0.2108E+02  0.6084E+02
    -17.994  0.2072E+02  0.6115E+02
    -17.979  0.2039E+02  0.6145E+02
    -17.965  0.2009E+02  0.6175E+02
    -17.950  0.1985E+02  0.6204E+02
    -17.935  0.1966E+02  0.6233E+02
    -17.920  0.1953E+02  0.6262E+02
    -17.906  0.1946E+02  0.6290E+02
    -17.891  0.1947E+02  0.6319E+02
    -17.876  0.1954E+02  0.6348E+02
    -17.861  0.1969E+02  0.6377E+02
    -17.847  0.1989E+02  0.6406E+02
    -17.832  0.2016E+02  0.6436E+02
    -17.817  0.2047E+02  0.6466E+02
    -17.802  0.2083E+02  0.6497E+02
    -17.788  0.2122E+02  0.6528E+02
    -17.773  0.2163E+02  0.6560E+02
    -17.758  0.2205E+02  0.6592E+02
    -17.743  0.2247E+02  0.6625E+02
    -17.729  0.2288E+02  0.6659E+02
    -17.714  0.2325E+02  0.6693E+02
    -17.699  0.2360E+02  0.6728E+02
    -17.685  0.2390E+02  0.6763E+02
    -17.670  0.2415E+02  0.6799E+02
    -17.655  0.2434E+02  0.6835E+02
    -17.640  0.2447E+02  0.6871E+02
    -17.626  0.2455E+02  0.6907E+02
    -17.611  0.2457E+02  0.6943E+02
    -17.596  0.2453E+02  0.6980E+02
    -17.581  0.2443E+02  0.7016E+02
    -17.567  0.2430E+02  0.7051E+02
    -17.552  0.2412E+02  0.7087E+02
    -17.537  0.2392E+02  0.7122E+02
    -17.522  0.2369E+02  0.7157E+02
    -17.508  0.2345E+02  0.7192E+02
    -17.493  0.2319E+02  0.7226E+02
    -17.478  0.2294E+02  0.7260E+02
    -17.463  0.2270E+02  0.7293E+02
    -17.449  0.2246E+02  0.7326E+02
    -17.434  0.2224E+02  0.7359E+02
    -17.419  0.2204E+02  0.7392E+02
    -17.404  0.2186E+02  0.7424E+02
    -17.390  0.2170E+02  0.7456E+02
    -17.375  0.2157E+02  0.7487E+02
    -17.360  0.2145E+02  0.7519E+02
    -17.346  0.2135E+02  0.7551E+02
    -17.331  0.2128E+02  0.7582E+02
    -17.316  0.2122E+02  0.7613E+02
    -17.301  0.2117E+02  0.7644E+02
    -17.287  0.2114E+02  0.7676E+02
    -17.272  0.2112E+02  0.7707E+02
    -17.257  0.2111E+02  0.7738E+02
    -17.242  0.2111E+02  0.7769E+02
    -17.228  0.2111E+02  0.7800E+02
    -17.213  0.2112E+02  0.7831E+02
    -17.198  0.2114E+02  0.7862E+02
    -17.183  0.2117E+02  0.7894E+02
    -17.169  0.2121E+02  0.7925E+02
    -17.154  0.2126E+02  0.7956E+02
    -17.139  0.2132E+02  0.7988E+02
    -17.124  0.2140E+02  0.8019E+02
    -17.110  0.2150E+02  0.8051E+02
    -17.095  0.2162E+02  0.8083E+02
    -17.080  0.2176E+02  0.8115E+02
    -17.065  0.2192E+02  0.8147E+02
    -17.051  0.2211E+02  0.8180E+02
    -17.036  0.2232E+02  0.8213E+02
    -17.021  0.2254E+02  0.8246E+02
    -17.007  0.2279E+02  0.8279E+02
    -16.992  0.2305E+02  0.8313E+02
    -16.977  0.2332E+02  0.8348E+02
    -16.962  0.2359E+02  0.8382E+02
    -16.948  0.2386E+02  0.8418E+02
    -16.933  0.2413E+02  0.8453E+02
    -16.918  0.2437E+02  0.8489E+02
    -16.903  0.2460E+02  0.8525E+02
    -16.889  0.2479E+02  0.8562E+02
    -16.874  0.2495E+02  0.8599E+02
    -16.859  0.2506E+02  0.8636E+02
    -16.844  0.2513E+02  0.8673E+02
    -16.830  0.2515E+02  0.8710E+02
    -16.815  0.2512E+02  0.8747E+02
    -16.800  0.2503E+02  0.8784E+02
    -16.785  0.2490E+02  0.8820E+02
    -16.771  0.2472E+02  0.8857E+02
    -16.756  0.2450E+02  0.8893E+02
    -16.741  0.2425E+02  0.8929E+02
    -16.726  0.2397E+02  0.8964E+02
    -16.712  0.2367E+02  0.8999E+02
    -16.697  0.2336E+02  0.9033E+02
    -16.682  0.2306E+02  0.9067E+02
    -16.668  0.2277E+02  0.9101E+02
    -16.653  0.2251E+02  0.9134E+02
    -16.638  0.2227E+02  0.9167E+02
    -16.623  0.2206E+02  0.9199E+02
    -16.609  0.2190E+02  0.9232E+02
    -16.594  0.2179E+02  0.9264E+02
    -16.579  0.2171E+02  0.9296E+02
    -16.564  0.2169E+02  0.9328E+02
    -16.550  0.2170E+02  0.9360E+02
    -16.535  0.2175E+02  0.9392E+02
    -16.520  0.2184E+02  0.9424E+02
    -16.505  0.2196E+02  0.9456E+02
    -16.491  0.2209E+02  0.9489E+02
    -16.476  0.2225E+02  0.9522E+02
    -16.461  0.2242E+02  0.9555E+02
    -16.446  0.2259E+02  0.9588E+02
    -16.432  0.2276E+02  0.9621E+02
    -16.417  0.2293E+02  0.9655E+02
    -16.402  0.2309E+02  0.9689E+02
    -16.388  0.2324E+02  0.9724E+02
    -16.373  0.2338E+02  0.9758E+02
    -16.358  0.2350E+02  0.9793E+02
    -16.343  0.2362E+02  0.9827E+02
    -16.329  0.2372E+02  0.9862E+02
    -16.314  0.2381E+02  0.9897E+02
    -16.299  0.2389E+02  0.9933E+02
    -16.284  0.2396E+02  0.9968E+02
    -16.270  0.2403E+02  0.1000E+03
    -16.255  0.2409E+02  0.1004E+03
    -16.240  0.2415E+02  0.1007E+03
    -16.225  0.2421E+02  0.1011E+03
    -16.211  0.2426E+02  0.1015E+03
    -16.196  0.2432E+02  0.1018E+03
    -16.181  0.2439E+02  0.1022E+03
    -16.166  0.2446E+02  0.1025E+03
    -16.152  0.2453E+02  0.1029E+03
    -16.137  0.2461E+02  0.1033E+03
    -16.122  0.2471E+02  0.1036E+03
    -16.107  0.2481E+02  0.1040E+03
    -16.093  0.2493E+02  0.1044E+03
    -16.078  0.2506E+02  0.1047E+03
    -16.063  0.2520E+02  0.1051E+03
    -16.049  0.2537E+02  0.1055E+03
    -16.034  0.2555E+02  0.1059E+03
    -16.019  0.2575E+02  0.1062E+03
    -16.004  0.2596E+02  0.1066E+03
    -15.990  0.2619E+02  0.1070E+03
    -15.975  0.2643E+02  0.1074E+03
    -15.960  0.2668E+02  0.1078E+03
    -15.945  0.2694E+02  0.1082E+03
    -15.931  0.2719E+02  0.1086E+03
    -15.916  0.2743E+02  0.1090E+03
    -15.901  0.2766E+02  0.1094E+03
    -15.886  0.2787E+02  0.1098E+03
    -15.872  0.2804E+02  0.1102E+03
    -15.857  0.2818E+02  0.1106E+03
    -15.842  0.2827E+02  0.1110E+03
    -15.827  0.2831E+02  0.1115E+03
    -15.813  0.2830E+02  0.1119E+03
    -15.798  0.2823E+02  0.1123E+03
    -15.783  0.2811E+02  0.1127E+03
    -15.768  0.2793E+02  0.1131E+03
    -15.754  0.2769E+02  0.1135E+03
    -15.739  0.2741E+02  0.1139E+03
    -15.724  0.2709E+02  0.1143E+03
    -15.710  0.2673E+02  0.1147E+03
    -15.695  0.2636E+02  0.1151E+03
    -15.680  0.2597E+02  0.1155E+03
    -15.665  0.2558E+02  0.1159E+03
    -15.651  0.2520E+02  0.1162E+03
    -15.636  0.2484E+02  0.1166E+03
    -15.621  0.2451E+02  0.1170E+03
    -15.606  0.2423E+02  0.1173E+03
    -15.592  0.2399E+02  0.1177E+03
    -15.577  0.2381E+02  0.1180E+03
    -15.562  0.2369E+02  0.1184E+03
    -15.547  0.2363E+02  0.1187E+03
    -15.533  0.2362E+02  0.1191E+03
    -15.518  0.2368E+02  0.1194E+03
    -15.503  0.2379E+02  0.1198E+03
    -15.488  0.2394E+02  0.1201E+03
    -15.474  0.2413E+02  0.1205E+03
    -15.459  0.2435E+02  0.1209E+03
    -15.444  0.2458E+02  0.1212E+03
    -15.429  0.2482E+02  0.1216E+03
    -15.415  0.2504E+02  0.1219E+03
    -15.400  0.2524E+02  0.1223E+03
    -15.385  0.2541E+02  0.1227E+03
    -15.371  0.2552E+02  0.1231E+03
    -15.356  0.2558E+02  0.1234E+03
    -15.341  0.2556E+02  0.1238E+03
    -15.326  0.2546E+02  0.1242E+03
    -15.312  0.2528E+02  0.1246E+03
    -15.297  0.2501E+02  0.1249E+03
    -15.282  0.2464E+02  0.1253E+03
    -15.267  0.2419E+02  0.1257E+03
    -15.253  0.2366E+02  0.1260E+03
    -15.238  0.2304E+02  0.1263E+03
    -15.223  0.2236E+02  0.1267E+03
    -15.208  0.2162E+02  0.1270E+03
    -15.194  0.2083E+02  0.1273E+03
    -15.179  0.2001E+02  0.1276E+03
    -15.164  0.1917E+02  0.1279E+03
    -15.149  0.1832E+02  0.1282E+03
    -15.135  0.1748E+02  0.1284E+03
    -15.120  0.1666E+02  0.1287E+03
    -15.105  0.1587E+02  0.1289E+03
    -15.090  0.1513E+02  0.1291E+03
    -15.076  0.1445E+02  0.1293E+03
    -15.061  0.1382E+02  0.1295E+03
    -15.046  0.1326E+02  0.1297E+03
    -15.032  0.1277E+02  0.1299E+03
    -15.017  0.1234E+02  0.1301E+03
    -15.002  0.1199E+02  0.1303E+03
    -14.987  0.1171E+02  0.1304E+03
    -14.973  0.1148E+02  0.1306E+03
    -14.958  0.1132E+02  0.1308E+03
    -14.943  0.1121E+02  0.1309E+03
    -14.928  0.1115E+02  0.1311E+03
    -14.914  0.1113E+02  0.1313E+03
    -14.899  0.1114E+02  0.1314E+03
    -14.884  0.1119E+02  0.1316E+03
    -14.869  0.1126E+02  0.1318E+03
    -14.855  0.1135E+02  0.1319E+03
    -14.840  0.1145E+02  0.1321E+03
    -14.825  0.1157E+02  0.1323E+03
    -14.810  0.1170E+02  0.1324E+03
    -14.796  0.1185E+02  0.1326E+03
    -14.781  0.1200E+02  0.1328E+03
    -14.766  0.1217E+02  0.1330E+03
    -14.751  0.1235E+02  0.1332E+03
    -14.737  0.1255E+02  0.1333E+03
    -14.722  0.1276E+02  0.1335E+03
    -14.707  0.1299E+02  0.1337E+03
    -14.693  0.1324E+02  0.1339E+03
    -14.678  0.1351E+02  0.1341E+03
    -14.663  0.1380E+02  0.1343E+03
    -14.648  0.1410E+02  0.1345E+03
    -14.634  0.1442E+02  0.1347E+03
    -14.619  0.1475E+02  0.1350E+03
    -14.604  0.1510E+02  0.1352E+03
    -14.589  0.1545E+02  0.1354E+03
    -14.575  0.1581E+02  0.1356E+03
    -14.560  0.1616E+02  0.1359E+03
    -14.545  0.1652E+02  0.1361E+03
    -14.530  0.1687E+02  0.1364E+03
    -14.516  0.1721E+02  0.1366E+03
    -14.501  0.1754E+02  0.1369E+03
    -14.486  0.1785E+02  0.1371E+03
    -14.471  0.1815E+02  0.1374E+03
    -14.457  0.1844E+02  0.1377E+03
    -14.442  0.1870E+02  0.1380E+03
    -14.427  0.1896E+02  0.1382E+03
    -14.412  0.1920E+02  0.1385E+03
    -14.398  0.1942E+02  0.1388E+03
    -14.383  0.1964E+02  0.1391E+03
    -14.368  0.1984E+02  0.1394E+03
    -14.354  0.2004E+02  0.1397E+03
    -14.339  0.2023E+02  0.1400E+03
    -14.324  0.2041E+02  0.1403E+03
    -14.309  0.2059E+02  0.1406E+03
    -14.295  0.2076E+02  0.1409E+03
    -14.280  0.2093E+02  0.1412E+03
    -14.265  0.2110E+02  0.1415E+03
    -14.250  0.2127E+02  0.1418E+03
    -14.236  0.2144E+02  0.1421E+03
    -14.221  0.2161E+02  0.1425E+03
    -14.206  0.2179E+02  0.1428E+03
    -14.191  0.2197E+02  0.1431E+03
    -14.177  0.2215E+02  0.1434E+03
    -14.162  0.2235E+02  0.1438E+03
    -14.147  0.2255E+02  0.1441E+03
    -14.132  0.2276E+02  0.1444E+03
    -14.118  0.2298E+02  0.1448E+03
    -14.103  0.2321E+02  0.1451E+03
    -14.088  0.2345E+02  0.1455E+03
    -14.074  0.2370E+02  0.1458E+03
    -14.059  0.2396E+02  0.1462E+03
    -14.044  0.2422E+02  0.1465E+03
    -14.029  0.2449E+02  0.1469E+03
    -14.015  0.2476E+02  0.1472E+03
    -14.000  0.2503E+02  0.1476E+03
    -13.985  0.2529E+02  0.1480E+03
    -13.970  0.2554E+02  0.1484E+03
    -13.956  0.2578E+02  0.1487E+03
    -13.941  0.2600E+02  0.1491E+03
    -13.926  0.2620E+02  0.1495E+03
    -13.911  0.2637E+02  0.1499E+03
    -13.897  0.2652E+02  0.1503E+03
    -13.882  0.2663E+02  0.1507E+03
    -13.867  0.2672E+02  0.1511E+03
    -13.852  0.2678E+02  0.1515E+03
    -13.838  0.2681E+02  0.1519E+03
    -13.823  0.2682E+02  0.1523E+03
    -13.808  0.2681E+02  0.1527E+03
    -13.793  0.2678E+02  0.1531E+03
    -13.779  0.2675E+02  0.1534E+03
    -13.764  0.2672E+02  0.1538E+03
    -13.749  0.2669E+02  0.1542E+03
    -13.735  0.2667E+02  0.1546E+03
    -13.720  0.2666E+02  0.1550E+03
    -13.705  0.2667E+02  0.1554E+03
    -13.690  0.2670E+02  0.1558E+03
    -13.676  0.2675E+02  0.1562E+03
    -13.661  0.2683E+02  0.1566E+03
    -13.646  0.2693E+02  0.1570E+03
    -13.631  0.2705E+02  0.1574E+03
    -13.617  0.2719E+02  0.1578E+03
    -13.602  0.2734E+02  0.1582E+03
    -13.587  0.2751E+02  0.1586E+03
    -13.572  0.2769E+02  0.1590E+03
    -13.558  0.2786E+02  0.1594E+03
    -13.543  0.2804E+02  0.1598E+03
    -13.528  0.2821E+02  0.1602E+03
    -13.513  0.2836E+02  0.1607E+03
    -13.499  0.2850E+02  0.1611E+03
    -13.484  0.2862E+02  0.1615E+03
    -13.469  0.2871E+02  0.1619E+03
    -13.454  0.2877E+02  0.1624E+03
    -13.440  0.2880E+02  0.1628E+03
    -13.425  0.2879E+02  0.1632E+03
    -13.410  0.2875E+02  0.1636E+03
    -13.396  0.2867E+02  0.1641E+03
    -13.381  0.2856E+02  0.1645E+03
    -13.366  0.2841E+02  0.1649E+03
    -13.351  0.2822E+02  0.1653E+03
    -13.337  0.2800E+02  0.1657E+03
    -13.322  0.2775E+02  0.1661E+03
    -13.307  0.2748E+02  0.1665E+03
    -13.292  0.2718E+02  0.1669E+03
    -13.278  0.2687E+02  0.1673E+03
    -13.263  0.2654E+02  0.1677E+03
    -13.248  0.2621E+02  0.1681E+03
    -13.233  0.2588E+02  0.1685E+03
    -13.219  0.2555E+02  0.1689E+03
    -13.204  0.2523E+02  0.1692E+03
    -13.189  0.2493E+02  0.1696E+03
    -13.174  0.2464E+02  0.1700E+03
    -13.160  0.2438E+02  0.1703E+03
    -13.145  0.2413E+02  0.1707E+03
    -13.130  0.2391E+02  0.1710E+03
    -13.115  0.2372E+02  0.1714E+03
    -13.101  0.2354E+02  0.1717E+03
    -13.086  0.2339E+02  0.1721E+03
    -13.071  0.2325E+02  0.1724E+03
    -13.057  0.2313E+02  0.1728E+03
    -13.042  0.2303E+02  0.1731E+03
    -13.027  0.2293E+02  0.1734E+03
    -13.012  0.2283E+02  0.1738E+03
    -12.998  0.2273E+02  0.1741E+03
    -12.983  0.2263E+02  0.1744E+03
    -12.968  0.2252E+02  0.1748E+03
    -12.953  0.2241E+02  0.1751E+03
    -12.939  0.2229E+02  0.1754E+03
    -12.924  0.2217E+02  0.1758E+03
    -12.909  0.2204E+02  0.1761E+03
    -12.894  0.2191E+02  0.1764E+03
    -12.880  0.2179E+02  0.1767E+03
    -12.865  0.2167E+02  0.1770E+03
    -12.850  0.2157E+02  0.1774E+03
    -12.835  0.2147E+02  0.1777E+03
    -12.821  0.2140E+02  0.1780E+03
    -12.806  0.2135E+02  0.1783E+03
    -12.791  0.2133E+02  0.1786E+03
    -12.776  0.2132E+02  0.1789E+03
    -12.762  0.2135E+02  0.1793E+03
    -12.747  0.2139E+02  0.1796E+03
    -12.732  0.2145E+02  0.1799E+03
    -12.718  0.2153E+02  0.1802E+03
    -12.703  0.2162E+02  0.1805E+03
    -12.688  0.2173E+02  0.1808E+03
    -12.673  0.2183E+02  0.1812E+03
    -12.659  0.2194E+02  0.1815E+03
    -12.644  0.2204E+02  0.1818E+03
    -12.629  0.2213E+02  0.1821E+03
    -12.614  0.2222E+02  0.1825E+03
    -12.600  0.2229E+02  0.1828E+03
    -12.585  0.2235E+02  0.1831E+03
    -12.570  0.2240E+02  0.1835E+03
    -12.555  0.2243E+02  0.1838E+03
    -12.541  0.2245E+02  0.1841E+03
    -12.526  0.2246E+02  0.1844E+03
    -12.511  0.2245E+02  0.1848E+03
    -12.496  0.2244E+02  0.1851E+03
    -12.482  0.2241E+02  0.1854E+03
    -12.467  0.2237E+02  0.1858E+03
    -12.452  0.2233E+02  0.1861E+03
    -12.437  0.2227E+02  0.1864E+03
    -12.423  0.2220E+02  0.1868E+03
    -12.408  0.2213E+02  0.1871E+03
    -12.393  0.2204E+02  0.1874E+03
    -12.379  0.2194E+02  0.1877E+03
    -12.364  0.2183E+02  0.1881E+03
    -12.349  0.2171E+02  0.1884E+03
    -12.334  0.2158E+02  0.1887E+03
    -12.320  0.2142E+02  0.1890E+03
    -12.305  0.2126E+02  0.1893E+03
    -12.290  0.2107E+02  0.1896E+03
    -12.275  0.2087E+02  0.1899E+03
    -12.261  0.2065E+02  0.1902E+03
    -12.246  0.2042E+02  0.1905E+03
    -12.231  0.2016E+02  0.1908E+03
    -12.216  0.1989E+02  0.1911E+03
    -12.202  0.1960E+02  0.1914E+03
    -12.187  0.1930E+02  0.1917E+03
    -12.172  0.1899E+02  0.1920E+03
    -12.157  0.1867E+02  0.1923E+03
    -12.143  0.1836E+02  0.1925E+03
    -12.128  0.1804E+02  0.1928E+03
    -12.113  0.1774E+02  0.1931E+03
    -12.099  0.1746E+02  0.1933E+03
    -12.084  0.1720E+02  0.1936E+03
    -12.069  0.1698E+02  0.1938E+03
    -12.054  0.1679E+02  0.1941E+03
    -12.040  0.1665E+02  0.1943E+03
    -12.025  0.1657E+02  0.1946E+03
    -12.010  0.1655E+02  0.1948E+03
    -11.995  0.1660E+02  0.1950E+03
    -11.981  0.1672E+02  0.1953E+03
    -11.966  0.1692E+02  0.1955E+03
    -11.951  0.1719E+02  0.1958E+03
    -11.936  0.1754E+02  0.1961E+03
    -11.922  0.1796E+02  0.1963E+03
    -11.907  0.1845E+02  0.1966E+03
    -11.892  0.1901E+02  0.1969E+03
    -11.877  0.1962E+02  0.1972E+03
    -11.863  0.2028E+02  0.1975E+03
    -11.848  0.2097E+02  0.1978E+03
    -11.833  0.2168E+02  0.1981E+03
    -11.818  0.2240E+02  0.1984E+03
    -11.804  0.2312E+02  0.1988E+03
    -11.789  0.2381E+02  0.1991E+03
    -11.774  0.2448E+02  0.1995E+03
    -11.760  0.2510E+02  0.1998E+03
    -11.745  0.2566E+02  0.2002E+03
    -11.730  0.2616E+02  0.2006E+03
    -11.715  0.2660E+02  0.2010E+03
    -11.701  0.2696E+02  0.2014E+03
    -11.686  0.2724E+02  0.2018E+03
    -11.671  0.2745E+02  0.2022E+03
    -11.656  0.2758E+02  0.2026E+03
    -11.642  0.2765E+02  0.2030E+03
    -11.627  0.2764E+02  0.2034E+03
    -11.612  0.2758E+02  0.2038E+03
    -11.597  0.2747E+02  0.2042E+03
    -11.583  0.2731E+02  0.2046E+03
    -11.568  0.2711E+02  0.2050E+03
    -11.553  0.2688E+02  0.2054E+03
    -11.538  0.2663E+02  0.2058E+03
    -11.524  0.2635E+02  0.2062E+03
    -11.509  0.2607E+02  0.2066E+03
    -11.494  0.2577E+02  0.2070E+03
    -11.479  0.2546E+02  0.2073E+03
    -11.465  0.2516E+02  0.2077E+03
    -11.450  0.2485E+02  0.2081E+03
    -11.435  0.2455E+02  0.2084E+03
    -11.421  0.2426E+02  0.2088E+03
    -11.406  0.2397E+02  0.2092E+03
    -11.391  0.2370E+02  0.2095E+03
    -11.376  0.2343E+02  0.2099E+03
    -11.362  0.2319E+02  0.2102E+03
    -11.347  0.2296E+02  0.2105E+03
    -11.332  0.2274E+02  0.2109E+03
    -11.317  0.2254E+02  0.2112E+03
    -11.303  0.2236E+02  0.2115E+03
    -11.288  0.2219E+02  0.2119E+03
    -11.273  0.2205E+02  0.2122E+03
    -11.258  0.2192E+02  0.2125E+03
    -11.244  0.2180E+02  0.2128E+03
    -11.229  0.2171E+02  0.2131E+03
    -11.214  0.2163E+02  0.2135E+03
    -11.199  0.2158E+02  0.2138E+03
    -11.185  0.2156E+02  0.2141E+03
    -11.170  0.2157E+02  0.2144E+03
    -11.155  0.2162E+02  0.2147E+03
    -11.140  0.2171E+02  0.2151E+03
    -11.126  0.2185E+02  0.2154E+03
    -11.111  0.2204E+02  0.2157E+03
    -11.096  0.2230E+02  0.2160E+03
    -11.082  0.2261E+02  0.2164E+03
    -11.067  0.2300E+02  0.2167E+03
    -11.052  0.2344E+02  0.2171E+03
    -11.037  0.2395E+02  0.2174E+03
    -11.023  0.2452E+02  0.2178E+03
    -11.008  0.2514E+02  0.2181E+03
    -10.993  0.2580E+02  0.2185E+03
    -10.978  0.2649E+02  0.2189E+03
    -10.964  0.2719E+02  0.2193E+03
    -10.949  0.2789E+02  0.2197E+03
    -10.934  0.2857E+02  0.2201E+03
    -10.919  0.2921E+02  0.2206E+03
    -10.905  0.2980E+02  0.2210E+03
    -10.890  0.3032E+02  0.2215E+03
    -10.875  0.3076E+02  0.2219E+03
    -10.860  0.3110E+02  0.2224E+03
    -10.846  0.3135E+02  0.2228E+03
    -10.831  0.3149E+02  0.2233E+03
    -10.816  0.3152E+02  0.2238E+03
    -10.801  0.3144E+02  0.2242E+03
    -10.787  0.3126E+02  0.2247E+03
    -10.772  0.3099E+02  0.2251E+03
    -10.757  0.3063E+02  0.2256E+03
    -10.743  0.3020E+02  0.2260E+03
    -10.728  0.2972E+02  0.2265E+03
    -10.713  0.2919E+02  0.2269E+03
    -10.698  0.2863E+02  0.2273E+03
    -10.684  0.2805E+02  0.2277E+03