 191 191   0   0
  0.2633094E+02  0.2556000E-08  0.1967610E-08  0.1000000E-08  0.5000000E-15
  1.000000000000000E-004
  CAR 
 unknown system                          
      6.09205507    -24.71819888 2000     -1.13732371      1.00000000
    -24.718  0.0000E+00  0.0000E+00
    -24.703  0.0000E+00  0.0000E+00
    -24.687  0.0000E+00  0.0000E+00
    -24.672  0.0000E+00  0.0000E+00
    -24.657  0.0000E+00  0.0000E+00
    -24.641  0.0000E+00  0.0000E+00
    -24.626  0.0000E+00  0.0000E+00
    -24.610  0.0000E+00  0.0000E+00
    -24.595  0.0000E+00  0.0000E+00
    -24.579  0.0000E+00  0.0000E+00
    -24.564  0.0000E+00  0.0000E+00
    -24.549  0.0000E+00  0.0000E+00
    -24.533  0.0000E+00  0.0000E+00
    -24.518  0.0000E+00  0.0000E+00
    -24.502  0.0000E+00  0.0000E+00
    -24.487  0.0000E+00  0.0000E+00
    -24.472  0.0000E+00  0.0000E+00
    -24.456  0.0000E+00  0.0000E+00
    -24.441  0.0000E+00  0.0000E+00
    -24.425  0.0000E+00  0.0000E+00
    -24.410  0.0000E+00  0.0000E+00
    -24.395  0.0000E+00  0.0000E+00
    -24.379  0.0000E+00  0.0000E+00
    -24.364  0.0000E+00  0.0000E+00
    -24.348  0.0000E+00  0.0000E+00
    -24.333  0.0000E+00  0.0000E+00
    -24.317  0.0000E+00  0.0000E+00
    -24.302  0.0000E+00  0.0000E+00
    -24.287  0.0000E+00  0.0000E+00
    -24.271  0.0000E+00  0.0000E+00
    -24.256  0.0000E+00  0.0000E+00
    -24.240  0.0000E+00  0.0000E+00
    -24.225  0.0000E+00  0.0000E+00
    -24.210  0.0000E+00  0.0000E+00
    -24.194  0.0000E+00  0.0000E+00
    -24.179  0.0000E+00  0.0000E+00
    -24.163  0.0000E+00  0.0000E+00
    -24.148  0.0000E+00  0.0000E+00
    -24.133  0.0000E+00  0.0000E+00
    -24.117  0.0000E+00  0.0000E+00
    -24.102  0.0000E+00  0.0000E+00
    -24.086  0.0000E+00  0.0000E+00
    -24.071  0.0000E+00  0.0000E+00
    -24.055  0.0000E+00  0.0000E+00
    -24.040  0.0000E+00  0.0000E+00
    -24.025  0.0000E+00  0.0000E+00
    -24.009  0.0000E+00  0.0000E+00
    -23.994  0.0000E+00  0.0000E+00
    -23.978  0.0000E+00  0.0000E+00
    -23.963  0.0000E+00  0.0000E+00
    -23.948  0.0000E+00  0.0000E+00
    -23.932  0.0000E+00  0.0000E+00
    -23.917  0.0000E+00  0.0000E+00
    -23.901  0.7203E-14  0.1110E-15
    -23.886  0.0000E+00  0.1110E-15
    -23.870  0.1441E-13  0.3331E-15
    -23.855  0.3602E-13  0.8882E-15
    -23.840  0.8644E-13  0.2220E-14
    -23.824  0.1945E-12  0.5218E-14
    -23.809  0.4682E-12  0.1243E-13
    -23.793  0.1073E-11  0.2898E-13
    -23.778  0.2452E-11  0.6676E-13
    -23.763  0.5554E-11  0.1524E-12
    -23.747  0.1241E-10  0.3437E-12
    -23.732  0.2740E-10  0.7660E-12
    -23.716  0.5980E-10  0.1688E-11
    -23.701  0.1290E-09  0.3675E-11
    -23.686  0.2748E-09  0.7911E-11
    -23.670  0.5788E-09  0.1683E-10
    -23.655  0.1204E-08  0.3540E-10
    -23.639  0.2477E-08  0.7357E-10
    -23.624  0.5034E-08  0.1512E-09
    -23.608  0.1011E-07  0.3070E-09
    -23.593  0.2006E-07  0.6162E-09
    -23.578  0.3935E-07  0.1223E-08
    -23.562  0.7625E-07  0.2398E-08
    -23.547  0.1460E-06  0.4649E-08
    -23.531  0.2764E-06  0.8909E-08
    -23.516  0.5169E-06  0.1688E-07
    -23.501  0.9554E-06  0.3160E-07
    -23.485  0.1745E-05  0.5850E-07
    -23.470  0.3149E-05  0.1070E-06
    -23.454  0.5617E-05  0.1936E-06
    -23.439  0.9900E-05  0.3462E-06
    -23.424  0.1724E-04  0.6120E-06
    -23.408  0.2968E-04  0.1069E-05
    -23.393  0.5048E-04  0.1848E-05
    -23.377  0.8485E-04  0.3155E-05
    -23.362  0.1409E-03  0.5328E-05
    -23.346  0.2313E-03  0.8893E-05
    -23.331  0.3752E-03  0.1468E-04
    -23.316  0.6015E-03  0.2395E-04
    -23.300  0.9527E-03  0.3863E-04
    -23.285  0.1491E-02  0.6162E-04
    -23.269  0.2307E-02  0.9717E-04
    -23.254  0.3526E-02  0.1515E-03
    -23.239  0.5327E-02  0.2336E-03
    -23.223  0.7951E-02  0.3562E-03
    -23.208  0.1173E-01  0.5370E-03
    -23.192  0.1710E-01  0.8005E-03
    -23.177  0.2463E-01  0.1180E-02
    -23.162  0.3506E-01  0.1721E-02
    -23.146  0.4933E-01  0.2481E-02
    -23.131  0.6857E-01  0.3538E-02
    -23.115  0.9421E-01  0.4990E-02
    -23.100  0.1279E+00  0.6961E-02
    -23.084  0.1716E+00  0.9605E-02
    -23.069  0.2275E+00  0.1311E-01
    -23.054  0.2980E+00  0.1770E-01
    -23.038  0.3858E+00  0.2365E-01
    -23.023  0.4936E+00  0.3126E-01
    -23.007  0.6240E+00  0.4087E-01
    -22.992  0.7796E+00  0.5289E-01
    -22.977  0.9625E+00  0.6773E-01
    -22.961  0.1174E+01  0.8583E-01
    -22.946  0.1416E+01  0.1076E+00
    -22.930  0.1687E+01  0.1336E+00
    -22.915  0.1986E+01  0.1643E+00
    -22.899  0.2311E+01  0.1999E+00
    -22.884  0.2657E+01  0.2408E+00
    -22.869  0.3019E+01  0.2874E+00
    -22.853  0.3390E+01  0.3396E+00
    -22.838  0.3761E+01  0.3976E+00
    -22.822  0.4124E+01  0.4611E+00
    -22.807  0.4469E+01  0.5300E+00
    -22.792  0.4785E+01  0.6038E+00
    -22.776  0.5063E+01  0.6818E+00
    -22.761  0.5294E+01  0.7634E+00
    -22.745  0.5470E+01  0.8477E+00
    -22.730  0.5586E+01  0.9338E+00
    -22.715  0.5637E+01  0.1021E+01
    -22.699  0.5621E+01  0.1107E+01
    -22.684  0.5539E+01  0.1193E+01
    -22.668  0.5394E+01  0.1276E+01
    -22.653  0.5191E+01  0.1356E+01
    -22.637  0.4936E+01  0.1432E+01
    -22.622  0.4639E+01  0.1503E+01
    -22.607  0.4308E+01  0.1570E+01
    -22.591  0.3953E+01  0.1631E+01
    -22.576  0.3585E+01  0.1686E+01
    -22.560  0.3213E+01  0.1735E+01
    -22.545  0.2845E+01  0.1779E+01
    -22.530  0.2490E+01  0.1818E+01
    -22.514  0.2153E+01  0.1851E+01
    -22.499  0.1840E+01  0.1879E+01
    -22.483  0.1554E+01  0.1903E+01
    -22.468  0.1297E+01  0.1923E+01
    -22.453  0.1070E+01  0.1940E+01
    -22.437  0.8720E+00  0.1953E+01
    -22.422  0.7023E+00  0.1964E+01
    -22.406  0.5590E+00  0.1973E+01
    -22.391  0.4396E+00  0.1979E+01
    -22.375  0.3417E+00  0.1985E+01
    -22.360  0.2625E+00  0.1989E+01
    -22.345  0.1992E+00  0.1992E+01
    -22.329  0.1494E+00  0.1994E+01
    -22.314  0.1108E+00  0.1996E+01
    -22.298  0.8114E-01  0.1997E+01
    -22.283  0.5876E-01  0.1998E+01
    -22.268  0.4207E-01  0.1999E+01
    -22.252  0.2980E-01  0.1999E+01
    -22.237  0.2093E-01  0.1999E+01
    -22.221  0.1462E-01  0.2000E+01
    -22.206  0.1026E-01  0.2000E+01
    -22.190  0.7374E-02  0.2000E+01
    -22.175  0.5631E-02  0.2000E+01
    -22.160  0.4823E-02  0.2000E+01
    -22.144  0.4853E-02  0.2000E+01
    -22.129  0.5723E-02  0.2000E+01
    -22.113  0.7541E-02  0.2000E+01
    -22.098  0.1052E-01  0.2000E+01
    -22.083  0.1501E-01  0.2001E+01
    -22.067  0.2147E-01  0.2001E+01
    -22.052  0.3056E-01  0.2001E+01
    -22.036  0.4311E-01  0.2002E+01
    -22.021  0.6016E-01  0.2003E+01
    -22.006  0.8302E-01  0.2004E+01
    -21.990  0.1132E+00  0.2006E+01
    -21.975  0.1526E+00  0.2008E+01
    -21.959  0.2033E+00  0.2012E+01
    -21.944  0.2676E+00  0.2016E+01
    -21.928  0.3481E+00  0.2021E+01
    -21.913  0.4475E+00  0.2028E+01
    -21.898  0.5685E+00  0.2037E+01
    -21.882  0.7136E+00  0.2048E+01
    -21.867  0.8853E+00  0.2061E+01
    -21.851  0.1085E+01  0.2078E+01
    -21.836  0.1315E+01  0.2098E+01
    -21.821  0.1574E+01  0.2123E+01
    -21.805  0.1862E+01  0.2151E+01
    -21.790  0.2177E+01  0.2185E+01
    -21.774  0.2515E+01  0.2224E+01
    -21.759  0.2871E+01  0.2268E+01
    -21.744  0.3240E+01  0.2318E+01
    -21.728  0.3612E+01  0.2373E+01
    -21.713  0.3979E+01  0.2435E+01
    -21.697  0.4332E+01  0.2502E+01
    -21.682  0.4661E+01  0.2573E+01
    -21.666  0.4956E+01  0.2650E+01
    -21.651  0.5207E+01  0.2730E+01
    -21.636  0.5406E+01  0.2813E+01
    -21.620  0.5547E+01  0.2899E+01
    -21.605  0.5624E+01  0.2986E+01
    -21.589  0.5636E+01  0.3072E+01
    -21.574  0.5580E+01  0.3158E+01
    -21.559  0.5460E+01  0.3243E+01
    -21.543  0.5280E+01  0.3324E+01
    -21.528  0.5046E+01  0.3402E+01
    -21.512  0.4766E+01  0.3475E+01
    -21.497  0.4449E+01  0.3544E+01
    -21.482  0.4105E+01  0.3607E+01
    -21.466  0.3744E+01  0.3665E+01
    -21.451  0.3377E+01  0.3717E+01
    -21.435  0.3013E+01  0.3763E+01
    -21.420  0.2661E+01  0.3804E+01
    -21.404  0.2329E+01  0.3840E+01
    -21.389  0.2022E+01  0.3871E+01
    -21.374  0.1748E+01  0.3898E+01
    -21.358  0.1509E+01  0.3922E+01
    -21.343  0.1309E+01  0.3942E+01
    -21.327  0.1150E+01  0.3959E+01
    -21.312  0.1035E+01  0.3975E+01
    -21.297  0.9636E+00  0.3990E+01
    -21.281  0.9376E+00  0.4005E+01
    -21.266  0.9578E+00  0.4019E+01
    -21.250  0.1025E+01  0.4035E+01
    -21.235  0.1140E+01  0.4053E+01
    -21.219  0.1303E+01  0.4073E+01
    -21.204  0.1516E+01  0.4096E+01
    -21.189  0.1778E+01  0.4124E+01
    -21.173  0.2089E+01  0.4156E+01
    -21.158  0.2450E+01  0.4194E+01
    -21.142  0.2860E+01  0.4238E+01
    -21.127  0.3316E+01  0.4289E+01
    -21.112  0.3816E+01  0.4348E+01
    -21.096  0.4358E+01  0.4415E+01
    -21.081  0.4938E+01  0.4491E+01
    -21.065  0.5552E+01  0.4577E+01
    -21.050  0.6196E+01  0.4672E+01
    -21.035  0.6865E+01  0.4778E+01
    -21.019  0.7555E+01  0.4894E+01
    -21.004  0.8262E+01  0.5022E+01
    -20.988  0.8983E+01  0.5160E+01
    -20.973  0.9714E+01  0.5310E+01
    -20.957  0.1045E+02  0.5471E+01
    -20.942  0.1120E+02  0.5644E+01
    -20.927  0.1195E+02  0.5828E+01
    -20.911  0.1271E+02  0.6024E+01
    -20.896  0.1346E+02  0.6231E+01
    -20.880  0.1423E+02  0.6450E+01
    -20.865  0.1499E+02  0.6681E+01
    -20.850  0.1575E+02  0.6924E+01
    -20.834  0.1651E+02  0.7179E+01
    -20.819  0.1727E+02  0.7445E+01
    -20.803  0.1802E+02  0.7722E+01
    -20.788  0.1876E+02  0.8012E+01
    -20.773  0.1949E+02  0.8312E+01
    -20.757  0.2021E+02  0.8623E+01
    -20.742  0.2090E+02  0.8946E+01
    -20.726  0.2158E+02  0.9278E+01
    -20.711  0.2224E+02  0.9621E+01
    -20.695  0.2287E+02  0.9974E+01
    -20.680  0.2347E+02  0.1034E+02
    -20.665  0.2405E+02  0.1071E+02
    -20.649  0.2459E+02  0.1108E+02
    -20.634  0.2511E+02  0.1147E+02
    -20.618  0.2559E+02  0.1187E+02
    -20.603  0.2604E+02  0.1227E+02
    -20.588  0.2646E+02  0.1268E+02
    -20.572  0.2684E+02  0.1309E+02
    -20.557  0.2718E+02  0.1351E+02
    -20.541  0.2749E+02  0.1393E+02
    -20.526  0.2777E+02  0.1436E+02
    -20.510  0.2801E+02  0.1479E+02
    -20.495  0.2822E+02  0.1523E+02
    -20.480  0.2840E+02  0.1566E+02
    -20.464  0.2854E+02  0.1610E+02
    -20.449  0.2866E+02  0.1655E+02
    -20.433  0.2876E+02  0.1699E+02
    -20.418  0.2884E+02  0.1743E+02
    -20.403  0.2890E+02  0.1788E+02
    -20.387  0.2895E+02  0.1833E+02
    -20.372  0.2899E+02  0.1877E+02
    -20.356  0.2902E+02  0.1922E+02
    -20.341  0.2904E+02  0.1967E+02
    -20.326  0.2907E+02  0.2012E+02
    -20.310  0.2909E+02  0.2056E+02
    -20.295  0.2911E+02  0.2101E+02
    -20.279  0.2912E+02  0.2146E+02
    -20.264  0.2913E+02  0.2191E+02
    -20.248  0.2914E+02  0.2236E+02
    -20.233  0.2913E+02  0.2281E+02
    -20.218  0.2913E+02  0.2326E+02
    -20.202  0.2911E+02  0.2371E+02
    -20.187  0.2908E+02  0.2415E+02
    -20.171  0.2904E+02  0.2460E+02
    -20.156  0.2900E+02  0.2505E+02
    -20.141  0.2894E+02  0.2549E+02
    -20.125  0.2888E+02  0.2594E+02
    -20.110  0.2881E+02  0.2638E+02
    -20.094  0.2874E+02  0.2683E+02
    -20.079  0.2867E+02  0.2727E+02
    -20.064  0.2860E+02  0.2771E+02
    -20.048  0.2853E+02  0.2815E+02
    -20.033  0.2847E+02  0.2859E+02
    -20.017  0.2842E+02  0.2903E+02
    -20.002  0.2837E+02  0.2946E+02
    -19.986  0.2833E+02  0.2990E+02
    -19.971  0.2831E+02  0.3034E+02
    -19.956  0.2829E+02  0.3077E+02
    -19.940  0.2829E+02  0.3121E+02
    -19.925  0.2829E+02  0.3164E+02
    -19.909  0.2831E+02  0.3208E+02
    -19.894  0.2833E+02  0.3252E+02
    -19.879  0.2836E+02  0.3295E+02
    -19.863  0.2840E+02  0.3339E+02
    -19.848  0.2845E+02  0.3383E+02
    -19.832  0.2849E+02  0.3427E+02
    -19.817  0.2855E+02  0.3471E+02
    -19.802  0.2860E+02  0.3515E+02
    -19.786  0.2865E+02  0.3559E+02
    -19.771  0.2870E+02  0.3603E+02
    -19.755  0.2875E+02  0.3648E+02
    -19.740  0.2879E+02  0.3692E+02
    -19.724  0.2884E+02  0.3737E+02
    -19.709  0.2887E+02  0.3781E+02
    -19.694  0.2890E+02  0.3826E+02
    -19.678  0.2893E+02  0.3870E+02
    -19.663  0.2896E+02  0.3915E+02
    -19.647  0.2897E+02  0.3959E+02
    -19.632  0.2899E+02  0.4004E+02
    -19.617  0.2901E+02  0.4049E+02
    -19.601  0.2902E+02  0.4094E+02
    -19.586  0.2904E+02  0.4138E+02
    -19.570  0.2906E+02  0.4183E+02
    -19.555  0.2908E+02  0.4228E+02
    -19.539  0.2911E+02  0.4273E+02
    -19.524  0.2915E+02  0.4318E+02
    -19.509  0.2919E+02  0.4363E+02
    -19.493  0.2924E+02  0.4408E+02
    -19.478  0.2931E+02  0.4453E+02
    -19.462  0.2937E+02  0.4498E+02
    -19.447  0.2945E+02  0.4544E+02
    -19.432  0.2952E+02  0.4589E+02
    -19.416  0.2960E+02  0.4635E+02
    -19.401  0.2967E+02  0.4681E+02
    -19.385  0.2974E+02  0.4726E+02
    -19.370  0.2980E+02  0.4772E+02
    -19.355  0.2985E+02  0.4818E+02
    -19.339  0.2988E+02  0.4864E+02
    -19.324  0.2989E+02  0.4910E+02
    -19.308  0.2989E+02  0.4956E+02
    -19.293  0.2987E+02  0.5003E+02
    -19.277  0.2983E+02  0.5048E+02
    -19.262  0.2978E+02  0.5094E+02
    -19.247  0.2971E+02  0.5140E+02
    -19.231  0.2964E+02  0.5186E+02
    -19.216  0.2956E+02  0.5231E+02
    -19.200  0.2949E+02  0.5277E+02
    -19.185  0.2942E+02  0.5322E+02
    -19.170  0.2936E+02  0.5367E+02
    -19.154  0.2931E+02  0.5413E+02
    -19.139  0.2928E+02  0.5458E+02
    -19.123  0.2927E+02  0.5503E+02
    -19.108  0.2928E+02  0.5548E+02
    -19.093  0.2932E+02  0.5593E+02
    -19.077  0.2937E+02  0.5638E+02
    -19.062  0.2944E+02  0.5684E+02
    -19.046  0.2952E+02  0.5729E+02
    -19.031  0.2962E+02  0.5775E+02
    -19.015  0.2973E+02  0.5821E+02
    -19.000  0.2984E+02  0.5867E+02
    -18.985  0.2996E+02  0.5913E+02
    -18.969  0.3007E+02  0.5959E+02
    -18.954  0.3018E+02  0.6006E+02
    -18.938  0.3028E+02  0.6053E+02
    -18.923  0.3036E+02  0.6099E+02
    -18.908  0.3043E+02  0.6146E+02
    -18.892  0.3048E+02  0.6193E+02
    -18.877  0.3052E+02  0.6240E+02
    -18.861  0.3053E+02  0.6287E+02
    -18.846  0.3052E+02  0.6334E+02
    -18.830  0.3049E+02  0.6381E+02
    -18.815  0.3045E+02  0.6428E+02
    -18.800  0.3038E+02  0.6475E+02
    -18.784  0.3031E+02  0.6522E+02
    -18.769  0.3022E+02  0.6568E+02
    -18.753  0.3013E+02  0.6615E+02
    -18.738  0.3003E+02  0.6661E+02
    -18.723  0.2994E+02  0.6707E+02
    -18.707  0.2986E+02  0.6753E+02
    -18.692  0.2978E+02  0.6799E+02
    -18.676  0.2972E+02  0.6845E+02
    -18.661  0.2968E+02  0.6891E+02
    -18.646  0.2966E+02  0.6936E+02
    -18.630  0.2965E+02  0.6982E+02
    -18.615  0.2967E+02  0.7028E+02
    -18.599  0.2971E+02  0.7074E+02
    -18.584  0.2976E+02  0.7120E+02
    -18.568  0.2983E+02  0.7166E+02
    -18.553  0.2991E+02  0.7212E+02
    -18.538  0.3000E+02  0.7258E+02
    -18.522  0.3009E+02  0.7304E+02
    -18.507  0.3018E+02  0.7351E+02
    -18.491  0.3027E+02  0.7397E+02
    -18.476  0.3036E+02  0.7444E+02
    -18.461  0.3043E+02  0.7491E+02
    -18.445  0.3049E+02  0.7538E+02
    -18.430  0.3054E+02  0.7585E+02
    -18.414  0.3057E+02  0.7632E+02
    -18.399  0.3059E+02  0.7679E+02
    -18.384  0.3059E+02  0.7727E+02
    -18.368  0.3058E+02  0.7774E+02
    -18.353  0.3057E+02  0.7821E+02
    -18.337  0.3054E+02  0.7868E+02
    -18.322  0.3051E+02  0.7915E+02
    -18.306  0.3048E+02  0.7962E+02
    -18.291  0.3045E+02  0.8009E+02
    -18.276  0.3042E+02  0.8056E+02
    -18.260  0.3040E+02  0.8103E+02
    -18.245  0.3038E+02  0.8149E+02
    -18.229  0.3037E+02  0.8196E+02
    -18.214  0.3036E+02  0.8243E+02
    -18.199  0.3035E+02  0.8290E+02
    -18.183  0.3034E+02  0.8337E+02
    -18.168  0.3034E+02  0.8383E+02
    -18.152  0.3033E+02  0.8430E+02
    -18.137  0.3032E+02  0.8477E+02
    -18.122  0.3031E+02  0.8524E+02
    -18.106  0.3030E+02  0.8570E+02
    -18.091  0.3027E+02  0.8617E+02
    -18.075  0.3025E+02  0.8664E+02
    -18.060  0.3022E+02  0.8710E+02
    -18.044  0.3019E+02  0.8757E+02
    -18.029  0.3016E+02  0.8803E+02
    -18.014  0.3013E+02  0.8850E+02
    -17.998  0.3011E+02  0.8896E+02
    -17.983  0.3010E+02  0.8942E+02
    -17.967  0.3009E+02  0.8989E+02
    -17.952  0.3009E+02  0.9035E+02
    -17.937  0.3011E+02  0.9081E+02
    -17.921  0.3013E+02  0.9128E+02
    -17.906  0.3017E+02  0.9174E+02
    -17.890  0.3021E+02  0.9221E+02
    -17.875  0.3027E+02  0.9268E+02
    -17.859  0.3034E+02  0.9314E+02
    -17.844  0.3041E+02  0.9361E+02
    -17.829  0.3048E+02  0.9408E+02
    -17.813  0.3056E+02  0.9455E+02
    -17.798  0.3064E+02  0.9503E+02
    -17.782  0.3072E+02  0.9550E+02
    -17.767  0.3079E+02  0.9597E+02
    -17.752  0.3085E+02  0.9645E+02
    -17.736  0.3090E+02  0.9693E+02
    -17.721  0.3094E+02  0.9740E+02
    -17.705  0.3097E+02  0.9788E+02
    -17.690  0.3098E+02  0.9836E+02
    -17.675  0.3097E+02  0.9883E+02
    -17.659  0.3094E+02  0.9931E+02
    -17.644  0.3090E+02  0.9979E+02
    -17.628  0.3083E+02  0.1003E+03
    -17.613  0.3075E+02  0.1007E+03
    -17.597  0.3065E+02  0.1012E+03
    -17.582  0.3053E+02  0.1017E+03
    -17.567  0.3040E+02  0.1021E+03
    -17.551  0.3027E+02  0.1026E+03
    -17.536  0.3013E+02  0.1031E+03
    -17.520  0.2999E+02  0.1035E+03
    -17.505  0.2986E+02  0.1040E+03
    -17.490  0.2974E+02  0.1045E+03
    -17.474  0.2963E+02  0.1049E+03
    -17.459  0.2955E+02  0.1054E+03
    -17.443  0.2949E+02  0.1058E+03
    -17.428  0.2946E+02  0.1063E+03
    -17.413  0.2946E+02  0.1067E+03
    -17.397  0.2949E+02  0.1072E+03
    -17.382  0.2956E+02  0.1076E+03
    -17.366  0.2966E+02  0.1081E+03
    -17.351  0.2980E+02  0.1086E+03
    -17.335  0.2997E+02  0.1090E+03
    -17.320  0.3017E+02  0.1095E+03
    -17.305  0.3039E+02  0.1100E+03
    -17.289  0.3063E+02  0.1104E+03
    -17.274  0.3089E+02  0.1109E+03
    -17.258  0.3116E+02  0.1114E+03
    -17.243  0.3143E+02  0.1119E+03
    -17.228  0.3169E+02  0.1124E+03
    -17.212  0.3195E+02  0.1129E+03
    -17.197  0.3219E+02  0.1133E+03
    -17.181  0.3240E+02  0.1138E+03
    -17.166  0.3259E+02  0.1143E+03
    -17.150  0.3275E+02  0.1149E+03
    -17.135  0.3288E+02  0.1154E+03
    -17.120  0.3297E+02  0.1159E+03
    -17.104  0.3302E+02  0.1164E+03
    -17.089  0.3303E+02  0.1169E+03
    -17.073  0.3300E+02  0.1174E+03
    -17.058  0.3294E+02  0.1179E+03
    -17.043  0.3284E+02  0.1184E+03
    -17.027  0.3271E+02  0.1189E+03
    -17.012  0.3255E+02  0.1194E+03
    -16.996  0.3236E+02  0.1199E+03
    -16.981  0.3216E+02  0.1204E+03
    -16.966  0.3194E+02  0.1209E+03
    -16.950  0.3171E+02  0.1214E+03
    -16.935  0.3147E+02  0.1219E+03
    -16.919  0.3123E+02  0.1224E+03
    -16.904  0.3100E+02  0.1228E+03
    -16.888  0.3077E+02  0.1233E+03
    -16.873  0.3056E+02  0.1238E+03
    -16.858  0.3037E+02  0.1242E+03
    -16.842  0.3021E+02  0.1247E+03
    -16.827  0.3007E+02  0.1252E+03
    -16.811  0.2996E+02  0.1256E+03
    -16.796  0.2988E+02  0.1261E+03
    -16.781  0.2984E+02  0.1266E+03
    -16.765  0.2984E+02  0.1270E+03
    -16.750  0.2987E+02  0.1275E+03
    -16.734  0.2994E+02  0.1279E+03
    -16.719  0.3004E+02  0.1284E+03
    -16.704  0.3017E+02  0.1289E+03
    -16.688  0.3033E+02  0.1293E+03
    -16.673  0.3051E+02  0.1298E+03
    -16.657  0.3071E+02  0.1303E+03
    -16.642  0.3092E+02  0.1308E+03
    -16.626  0.3113E+02  0.1312E+03
    -16.611  0.3135E+02  0.1317E+03
    -16.596  0.3157E+02  0.1322E+03
    -16.580  0.3178E+02  0.1327E+03
    -16.565  0.3198E+02  0.1332E+03
    -16.549  0.3216E+02  0.1337E+03
    -16.534  0.3233E+02  0.1342E+03
    -16.519  0.3249E+02  0.1347E+03
    -16.503  0.3262E+02  0.1352E+03
    -16.488  0.3274E+02  0.1357E+03
    -16.472  0.3283E+02  0.1362E+03
    -16.457  0.3291E+02  0.1367E+03
    -16.442  0.3297E+02  0.1372E+03
    -16.426  0.3302E+02  0.1377E+03
    -16.411  0.3304E+02  0.1382E+03
    -16.395  0.3305E+02  0.1387E+03
    -16.380  0.3304E+02  0.1392E+03
    -16.364  0.3301E+02  0.1398E+03
    -16.349  0.3297E+02  0.1403E+03
    -16.334  0.3292E+02  0.1408E+03
    -16.318  0.3285E+02  0.1413E+03
    -16.303  0.3277E+02  0.1418E+03
    -16.287  0.3268E+02  0.1423E+03
    -16.272  0.3259E+02  0.1428E+03
    -16.257  0.3249E+02  0.1433E+03
    -16.241  0.3239E+02  0.1438E+03
    -16.226  0.3231E+02  0.1443E+03
    -16.210  0.3223E+02  0.1448E+03
    -16.195  0.3218E+02  0.1453E+03
    -16.179  0.3214E+02  0.1458E+03
    -16.164  0.3213E+02  0.1463E+03
    -16.149  0.3216E+02  0.1468E+03
    -16.133  0.3221E+02  0.1473E+03
    -16.118  0.3231E+02  0.1478E+03
    -16.102  0.3244E+02  0.1483E+03
    -16.087  0.3261E+02  0.1488E+03
    -16.072  0.3281E+02  0.1493E+03
    -16.056  0.3305E+02  0.1498E+03
    -16.041  0.3332E+02  0.1503E+03
    -16.025  0.3361E+02  0.1508E+03
    -16.010  0.3393E+02  0.1513E+03
    -15.995  0.3426E+02  0.1519E+03
    -15.979  0.3460E+02  0.1524E+03
    -15.964  0.3494E+02  0.1529E+03
    -15.948  0.3528E+02  0.1535E+03
    -15.933  0.3561E+02  0.1540E+03
    -15.917  0.3593E+02  0.1546E+03
    -15.902  0.3622E+02  0.1551E+03
    -15.887  0.3649E+02  0.1557E+03
    -15.871  0.3673E+02  0.1563E+03
    -15.856  0.3693E+02  0.1568E+03
    -15.840  0.3710E+02  0.1574E+03
    -15.825  0.3723E+02  0.1580E+03
    -15.810  0.3731E+02  0.1586E+03
    -15.794  0.3736E+02  0.1591E+03
    -15.779  0.3735E+02  0.1597E+03
    -15.763  0.3730E+02  0.1603E+03
    -15.748  0.3721E+02  0.1609E+03
    -15.733  0.3707E+02  0.1614E+03
    -15.717  0.3690E+02  0.1620E+03
    -15.702  0.3668E+02  0.1626E+03
    -15.686  0.3642E+02  0.1631E+03
    -15.671  0.3613E+02  0.1637E+03
    -15.655  0.3580E+02  0.1642E+03
    -15.640  0.3545E+02  0.1648E+03
    -15.625  0.3506E+02  0.1653E+03
    -15.609  0.3466E+02  0.1659E+03
    -15.594  0.3423E+02  0.1664E+03
    -15.578  0.3378E+02  0.1669E+03
    -15.563  0.3332E+02  0.1674E+03
    -15.548  0.3284E+02  0.1679E+03
    -15.532  0.3235E+02  0.1684E+03
    -15.517  0.3185E+02  0.1689E+03
    -15.501  0.3134E+02  0.1694E+03
    -15.486  0.3083E+02  0.1699E+03
    -15.470  0.3031E+02  0.1703E+03
    -15.455  0.2978E+02  0.1708E+03
    -15.440  0.2926E+02  0.1712E+03
    -15.424  0.2875E+02  0.1717E+03
    -15.409  0.2824E+02  0.1721E+03
    -15.393  0.2774E+02  0.1726E+03
    -15.378  0.2726E+02  0.1730E+03
    -15.363  0.2680E+02  0.1734E+03
    -15.347  0.2635E+02  0.1738E+03
    -15.332  0.2593E+02  0.1742E+03
    -15.316  0.2554E+02  0.1746E+03
    -15.301  0.2517E+02  0.1750E+03
    -15.286  0.2483E+02  0.1754E+03
    -15.270  0.2452E+02  0.1757E+03
    -15.255  0.2423E+02  0.1761E+03
    -15.239  0.2397E+02  0.1765E+03
    -15.224  0.2374E+02  0.1768E+03
    -15.208  0.2353E+02  0.1772E+03
    -15.193  0.2334E+02  0.1776E+03
    -15.178  0.2316E+02  0.1779E+03
    -15.162  0.2301E+02  0.1783E+03
    -15.147  0.2287E+02  0.1786E+03
    -15.131  0.2274E+02  0.1790E+03
    -15.116  0.2264E+02  0.1793E+03
    -15.101  0.2254E+02  0.1797E+03
    -15.085  0.2246E+02  0.1800E+03
    -15.070  0.2240E+02  0.1804E+03
    -15.054  0.2235E+02  0.1807E+03
    -15.039  0.2232E+02  0.1811E+03
    -15.024  0.2229E+02  0.1814E+03
    -15.008  0.2229E+02  0.1817E+03
    -14.993  0.2229E+02  0.1821E+03
    -14.977  0.2231E+02  0.1824E+03
    -14.962  0.2233E+02  0.1828E+03
    -14.946  0.2236E+02  0.1831E+03
    -14.931  0.2239E+02  0.1835E+03
    -14.916  0.2243E+02  0.1838E+03
    -14.900  0.2248E+02  0.1842E+03
    -14.885  0.2252E+02  0.1845E+03
    -14.869  0.2257E+02  0.1849E+03
    -14.854  0.2262E+02  0.1852E+03
    -14.839  0.2267E+02  0.1855E+03
    -14.823  0.2273E+02  0.1859E+03
    -14.808  0.2279E+02  0.1863E+03
    -14.792  0.2286E+02  0.1866E+03
    -14.777  0.2293E+02  0.1870E+03
    -14.762  0.2301E+02  0.1873E+03
    -14.746  0.2310E+02  0.1877E+03
    -14.731  0.2320E+02  0.1880E+03
    -14.715  0.2330E+02  0.1884E+03
    -14.700  0.2341E+02  0.1887E+03
    -14.684  0.2353E+02  0.1891E+03
    -14.669  0.2365E+02  0.1895E+03
    -14.654  0.2379E+02  0.1898E+03
    -14.638  0.2393E+02  0.1902E+03
    -14.623  0.2409E+02  0.1906E+03
    -14.607  0.2426E+02  0.1910E+03
    -14.592  0.2445E+02  0.1913E+03
    -14.577  0.2466E+02  0.1917E+03
    -14.561  0.2489E+02  0.1921E+03
    -14.546  0.2515E+02  0.1925E+03
    -14.530  0.2544E+02  0.1929E+03
    -14.515  0.2577E+02  0.1933E+03
    -14.499  0.2613E+02  0.1937E+03
    -14.484  0.2651E+02  0.1941E+03
    -14.469  0.2693E+02  0.1945E+03
    -14.453  0.2738E+02  0.1949E+03
    -14.438  0.2784E+02  0.1953E+03
    -14.422  0.2832E+02  0.1958E+03
    -14.407  0.2881E+02  0.1962E+03
    -14.392  0.2929E+02  0.1967E+03
    -14.376  0.2976E+02  0.1971E+03
    -14.361  0.3021E+02  0.1976E+03
    -14.345  0.3062E+02  0.1981E+03
    -14.330  0.3100E+02  0.1986E+03
    -14.315  0.3134E+02  0.1990E+03
    -14.299  0.3162E+02  0.1995E+03
    -14.284  0.3186E+02  0.2000E+03
    -14.268  0.3205E+02  0.2005E+03
    -14.253  0.3219E+02  0.2010E+03
    -14.237  0.3228E+02  0.2015E+03
    -14.222  0.3233E+02  0.2020E+03
    -14.207  0.3235E+02  0.2025E+03
    -14.191  0.3234E+02  0.2030E+03
    -14.176  0.3231E+02  0.2035E+03
    -14.160  0.3226E+02  0.2040E+03
    -14.145  0.3220E+02  0.2045E+03
    -14.130  0.3214E+02  0.2050E+03
    -14.114  0.3208E+02  0.2055E+03
    -14.099  0.3203E+02  0.2060E+03
    -14.083  0.3199E+02  0.2065E+03
    -14.068  0.3196E+02  0.2070E+03
    -14.053  0.3194E+02  0.2075E+03
    -14.037  0.3194E+02  0.2079E+03
    -14.022  0.3195E+02  0.2084E+03
    -14.006  0.3198E+02  0.2089E+03
    -13.991  0.3203E+02  0.2094E+03
    -13.975  0.3209E+02  0.2099E+03
    -13.960  0.3217E+02  0.2104E+03
    -13.945  0.3227E+02  0.2109E+03
    -13.929  0.3239E+02  0.2114E+03
    -13.914  0.3253E+02  0.2119E+03
    -13.898  0.3268E+02  0.2124E+03
    -13.883  0.3285E+02  0.2129E+03
    -13.868  0.3304E+02  0.2134E+03
    -13.852  0.3324E+02  0.2139E+03
    -13.837  0.3346E+02  0.2145E+03
    -13.821  0.3369E+02  0.2150E+03
    -13.806  0.3393E+02  0.2155E+03
    -13.791  0.3417E+02  0.2160E+03
    -13.775  0.3441E+02  0.2166E+03
    -13.760  0.3465E+02  0.2171E+03
    -13.744  0.3489E+02  0.2176E+03
    -13.729  0.3512E+02  0.2182E+03
    -13.713  0.3534E+02  0.2187E+03
    -13.698  0.3555E+02  0.2193E+03
    -13.683  0.3574E+02  0.2198E+03
    -13.667  0.3593E+02  0.2204E+03
    -13.652  0.3609E+02  0.2209E+03
    -13.636  0.3625E+02  0.2215E+03
    -13.621  0.3639E+02  0.2220E+03
    -13.606  0.3651E+02  0.2226E+03
    -13.590  0.3663E+02  0.2232E+03
    -13.575  0.3672E+02  0.2237E+03
    -13.559  0.3681E+02  0.2243E+03
    -13.544  0.3687E+02  0.2249E+03
    -13.528  0.3691E+02  0.2254E+03
    -13.513  0.3693E+02  0.2260E+03
    -13.498  0.3693E+02  0.2266E+03
    -13.482  0.3689E+02  0.2271E+03
    -13.467  0.3683E+02  0.2277E+03
    -13.451  0.3673E+02  0.2283E+03
    -13.436  0.3659E+02  0.2288E+03
    -13.421  0.3641E+02  0.2294E+03
    -13.405  0.3620E+02  0.2300E+03
    -13.390  0.3595E+02  0.2305E+03
    -13.374  0.3567E+02  0.2311E+03
    -13.359  0.3535E+02  0.2316E+03
    -13.344  0.3502E+02  0.2322E+03
    -13.328  0.3466E+02  0.2327E+03
    -13.313  0.3429E+02  0.2332E+03
    -13.297  0.3391E+02  0.2337E+03
    -13.282  0.3353E+02  0.2343E+03
    -13.266  0.3316E+02  0.2348E+03
    -13.251  0.3281E+02  0.2353E+03
    -13.236  0.3247E+02  0.2358E+03
    -13.220  0.3216E+02  0.2363E+03
    -13.205  0.3187E+02  0.2368E+03
    -13.189  0.3162E+02  0.2372E+03
    -13.174  0.3140E+02  0.2377E+03
    -13.159  0.3122E+02  0.2382E+03
    -13.143  0.3107E+02  0.2387E+03
    -13.128  0.3096E+02  0.2392E+03
    -13.112  0.3087E+02  0.2396E+03
    -13.097  0.3082E+02  0.2401E+03
    -13.082  0.3078E+02  0.2406E+03
    -13.066  0.3077E+02  0.2411E+03
    -13.051  0.3077E+02  0.2415E+03
    -13.035  0.3078E+02  0.2420E+03
    -13.020  0.3080E+02  0.2425E+03
    -13.004  0.3081E+02  0.2430E+03
    -12.989  0.3083E+02  0.2434E+03
    -12.974  0.3084E+02  0.2439E+03
    -12.958  0.3084E+02  0.2444E+03
    -12.943  0.3084E+02  0.2449E+03
    -12.927  0.3083E+02  0.2453E+03
    -12.912  0.3082E+02  0.2458E+03
    -12.897  0.3081E+02  0.2463E+03
    -12.881  0.3079E+02  0.2468E+03
    -12.866  0.3077E+02  0.2472E+03
    -12.850  0.3076E+02  0.2477E+03
    -12.835  0.3075E+02  0.2482E+03
    -12.819  0.3075E+02  0.2487E+03
    -12.804  0.3075E+02  0.2491E+03
    -12.789  0.3075E+02  0.2496E+03
    -12.773  0.3075E+02  0.2501E+03
    -12.758  0.3075E+02  0.2506E+03
    -12.742  0.3075E+02  0.2510E+03
    -12.727  0.3074E+02  0.2515E+03
    -12.712  0.3072E+02  0.2520E+03
    -12.696  0.3068E+02  0.2525E+03
    -12.681  0.3062E+02  0.2529E+03
    -12.665  0.3054E+02  0.2534E+03
    -12.650  0.3044E+02  0.2539E+03
    -12.635  0.3031E+02  0.2543E+03
    -12.619  0.3016E+02  0.2548E+03
    -12.604  0.2998E+02  0.2553E+03
    -12.588  0.2979E+02  0.2557E+03
    -12.573  0.2957E+02  0.2562E+03
    -12.557  0.2934E+02  0.2566E+03
    -12.542  0.2909E+02  0.2571E+03
    -12.527  0.2884E+02  0.2575E+03
    -12.511  0.2858E+02  0.2580E+03
    -12.496  0.2832E+02  0.2584E+03
    -12.480  0.2807E+02  0.2588E+03
    -12.465  0.2782E+02  0.2593E+03
    -12.450  0.2760E+02  0.2597E+03
    -12.434  0.2739E+02  0.2601E+03
    -12.419  0.2721E+02  0.2605E+03
    -12.403  0.2706E+02  0.2609E+03
    -12.388  0.2694E+02  0.2614E+03
    -12.373  0.2686E+02  0.2618E+03
    -12.357  0.2682E+02  0.2622E+03
    -12.342  0.2682E+02  0.2626E+03
    -12.326  0.2686E+02  0.2630E+03
    -12.311  0.2694E+02  0.2634E+03
    -12.295  0.2706E+02  0.2638E+03
    -12.280  0.2722E+02  0.2643E+03
    -12.265  0.2741E+02  0.2647E+03
    -12.249  0.2762E+02  0.2651E+03
    -12.234  0.2786E+02  0.2655E+03
    -12.218  0.2811E+02  0.2660E+03
    -12.203  0.2838E+02  0.2664E+03
    -12.188  0.2865E+02  0.2669E+03
    -12.172  0.2892E+02  0.2673E+03
    -12.157  0.2918E+02  0.2677E+03
    -12.141  0.2943E+02  0.2682E+03
    -12.126  0.2968E+02  0.2687E+03
    -12.111  0.2990E+02  0.2691E+03
    -12.095  0.3012E+02  0.2696E+03
    -12.080  0.3032E+02  0.2701E+03
    -12.064  0.3050E+02  0.2705E+03
    -12.049  0.3067E+02  0.2710E+03
    -12.033  0.3083E+02  0.2715E+03
    -12.018  0.3098E+02  0.2719E+03
    -12.003  0.3112E+02  0.2724E+03