  95  95   0   0
  0.2646953E+02  0.1704000E-08  0.1475707E-08  0.1000000E-08  0.5000000E-15
  1.000000000000000E-004
  CAR 
 unknown system                          
      6.56640008    -22.83197245 2000     -1.37543258      1.00000000
    -22.832  0.0000E+00  0.0000E+00
    -22.817  0.0000E+00  0.0000E+00
    -22.803  0.0000E+00  0.0000E+00
    -22.788  0.0000E+00  0.0000E+00
    -22.773  0.0000E+00  0.0000E+00
    -22.758  0.0000E+00  0.0000E+00
    -22.744  0.0000E+00  0.0000E+00
    -22.729  0.0000E+00  0.0000E+00
    -22.714  0.0000E+00  0.0000E+00
    -22.700  0.0000E+00  0.0000E+00
    -22.685  0.0000E+00  0.0000E+00
    -22.670  0.0000E+00  0.0000E+00
    -22.655  0.0000E+00  0.0000E+00
    -22.641  0.0000E+00  0.0000E+00
    -22.626  0.0000E+00  0.0000E+00
    -22.611  0.0000E+00  0.0000E+00
    -22.597  0.0000E+00  0.0000E+00
    -22.582  0.0000E+00  0.0000E+00
    -22.567  0.0000E+00  0.0000E+00
    -22.553  0.0000E+00  0.0000E+00
    -22.538  0.0000E+00  0.0000E+00
    -22.523  0.0000E+00  0.0000E+00
    -22.508  0.0000E+00  0.0000E+00
    -22.494  0.0000E+00  0.0000E+00
    -22.479  0.0000E+00  0.0000E+00
    -22.464  0.0000E+00  0.0000E+00
    -22.450  0.0000E+00  0.0000E+00
    -22.435  0.0000E+00  0.0000E+00
    -22.420  0.0000E+00  0.0000E+00
    -22.405  0.0000E+00  0.0000E+00
    -22.391  0.0000E+00  0.0000E+00
    -22.376  0.0000E+00  0.0000E+00
    -22.361  0.0000E+00  0.0000E+00
    -22.347  0.0000E+00  0.0000E+00
    -22.332  0.0000E+00  0.0000E+00
    -22.317  0.0000E+00  0.0000E+00
    -22.303  0.0000E+00  0.0000E+00
    -22.288  0.0000E+00  0.0000E+00
    -22.273  0.0000E+00  0.0000E+00
    -22.258  0.0000E+00  0.0000E+00
    -22.244  0.0000E+00  0.0000E+00
    -22.229  0.0000E+00  0.0000E+00
    -22.214  0.0000E+00  0.0000E+00
    -22.200  0.0000E+00  0.0000E+00
    -22.185  0.0000E+00  0.0000E+00
    -22.170  0.0000E+00  0.0000E+00
    -22.155  0.0000E+00  0.0000E+00
    -22.141  0.0000E+00  0.0000E+00
    -22.126  0.0000E+00  0.0000E+00
    -22.111  0.0000E+00  0.0000E+00
    -22.097  0.0000E+00  0.0000E+00
    -22.082  0.0000E+00  0.0000E+00
    -22.067  0.0000E+00  0.0000E+00
    -22.053  0.0000E+00  0.0000E+00
    -22.038  0.0000E+00  0.0000E+00
    -22.023  0.0000E+00  0.0000E+00
    -22.008  0.8388E-15  0.1234E-16
    -21.994  0.8388E-15  0.2467E-16
    -21.979  0.2516E-14  0.6168E-16
    -21.964  0.6710E-14  0.1604E-15
    -21.950  0.1678E-13  0.4071E-15
    -21.935  0.3607E-13  0.9375E-15
    -21.920  0.8388E-13  0.2171E-14
    -21.905  0.1854E-12  0.4897E-14
    -21.891  0.4102E-12  0.1093E-13
    -21.876  0.9051E-12  0.2424E-13
    -21.861  0.1966E-11  0.5316E-13
    -21.847  0.4236E-11  0.1155E-12
    -21.832  0.9016E-11  0.2480E-12
    -21.817  0.1901E-10  0.5276E-12
    -21.803  0.3963E-10  0.1110E-11
    -21.788  0.8178E-10  0.2313E-11
    -21.773  0.1670E-09  0.4769E-11
    -21.758  0.3374E-09  0.9732E-11
    -21.744  0.6747E-09  0.1965E-10
    -21.729  0.1335E-08  0.3929E-10
    -21.714  0.2614E-08  0.7774E-10
    -21.700  0.5066E-08  0.1522E-09
    -21.685  0.9714E-08  0.2951E-09
    -21.670  0.1843E-07  0.5662E-09
    -21.655  0.3462E-07  0.1075E-08
    -21.641  0.6433E-07  0.2021E-08
    -21.626  0.1183E-06  0.3761E-08
    -21.611  0.2153E-06  0.6928E-08
    -21.597  0.3879E-06  0.1263E-07
    -21.582  0.6914E-06  0.2280E-07
    -21.567  0.1220E-05  0.4074E-07
    -21.553  0.2130E-05  0.7206E-07
    -21.538  0.3680E-05  0.1262E-06
    -21.523  0.6293E-05  0.2187E-06
    -21.508  0.1065E-04  0.3754E-06
    -21.494  0.1784E-04  0.6377E-06
    -21.479  0.2958E-04  0.1073E-05
    -21.464  0.4853E-04  0.1786E-05
    -21.450  0.7880E-04  0.2945E-05
    -21.435  0.1267E-03  0.4808E-05
    -21.420  0.2015E-03  0.7771E-05
    -21.405  0.3173E-03  0.1244E-04
    -21.391  0.4945E-03  0.1971E-04
    -21.376  0.7627E-03  0.3093E-04
    -21.361  0.1165E-02  0.4805E-04
    -21.347  0.1760E-02  0.7394E-04
    -21.332  0.2633E-02  0.1127E-03
    -21.317  0.3899E-02  0.1700E-03
    -21.302  0.5715E-02  0.2541E-03
    -21.288  0.8293E-02  0.3760E-03
    -21.273  0.1191E-01  0.5512E-03
    -21.258  0.1694E-01  0.8003E-03
    -21.244  0.2384E-01  0.1151E-02
    -21.229  0.3323E-01  0.1640E-02
    -21.214  0.4584E-01  0.2314E-02
    -21.200  0.6262E-01  0.3235E-02
    -21.185  0.8469E-01  0.4480E-02
    -21.170  0.1134E+00  0.6148E-02
    -21.155  0.1504E+00  0.8359E-02
    -21.141  0.1974E+00  0.1126E-01
    -21.126  0.2567E+00  0.1504E-01
    -21.111  0.3305E+00  0.1990E-01
    -21.097  0.4214E+00  0.2609E-01
    -21.082  0.5322E+00  0.3392E-01
    -21.067  0.6657E+00  0.4371E-01
    -21.052  0.8249E+00  0.5584E-01
    -21.038  0.1013E+01  0.7073E-01
    -21.023  0.1232E+01  0.8884E-01
    -21.008  0.1484E+01  0.1107E+00
    -20.994  0.1772E+01  0.1367E+00
    -20.979  0.2098E+01  0.1676E+00
    -20.964  0.2461E+01  0.2038E+00
    -20.950  0.2862E+01  0.2459E+00
    -20.935  0.3300E+01  0.2944E+00
    -20.920  0.3773E+01  0.3499E+00
    -20.905  0.4278E+01  0.4128E+00
    -20.891  0.4813E+01  0.4836E+00
    -20.876  0.5372E+01  0.5626E+00
    -20.861  0.5951E+01  0.6501E+00
    -20.847  0.6544E+01  0.7463E+00
    -20.832  0.7143E+01  0.8514E+00
    -20.817  0.7745E+01  0.9653E+00
    -20.802  0.8340E+01  0.1088E+01
    -20.788  0.8925E+01  0.1219E+01
    -20.773  0.9492E+01  0.1359E+01
    -20.758  0.1004E+02  0.1506E+01
    -20.744  0.1055E+02  0.1662E+01
    -20.729  0.1104E+02  0.1824E+01
    -20.714  0.1149E+02  0.1993E+01
    -20.700  0.1191E+02  0.2168E+01
    -20.685  0.1229E+02  0.2349E+01
    -20.670  0.1263E+02  0.2535E+01
    -20.655  0.1293E+02  0.2725E+01
    -20.641  0.1320E+02  0.2919E+01
    -20.626  0.1344E+02  0.3117E+01
    -20.611  0.1364E+02  0.3317E+01
    -20.597  0.1382E+02  0.3520E+01
    -20.582  0.1397E+02  0.3726E+01
    -20.567  0.1409E+02  0.3933E+01
    -20.552  0.1420E+02  0.4142E+01
    -20.538  0.1429E+02  0.4352E+01
    -20.523  0.1437E+02  0.4563E+01
    -20.508  0.1443E+02  0.4776E+01
    -20.494  0.1449E+02  0.4989E+01
    -20.479  0.1454E+02  0.5203E+01
    -20.464  0.1458E+02  0.5417E+01
    -20.450  0.1461E+02  0.5632E+01
    -20.435  0.1464E+02  0.5847E+01
    -20.420  0.1466E+02  0.6063E+01
    -20.405  0.1468E+02  0.6278E+01
    -20.391  0.1469E+02  0.6495E+01
    -20.376  0.1469E+02  0.6711E+01
    -20.361  0.1469E+02  0.6927E+01
    -20.347  0.1469E+02  0.7143E+01
    -20.332  0.1468E+02  0.7359E+01
    -20.317  0.1466E+02  0.7574E+01
    -20.302  0.1464E+02  0.7790E+01
    -20.288  0.1461E+02  0.8004E+01
    -20.273  0.1458E+02  0.8219E+01
    -20.258  0.1455E+02  0.8433E+01
    -20.244  0.1451E+02  0.8646E+01
    -20.229  0.1447E+02  0.8859E+01
    -20.214  0.1443E+02  0.9071E+01
    -20.200  0.1440E+02  0.9283E+01
    -20.185  0.1437E+02  0.9494E+01
    -20.170  0.1434E+02  0.9705E+01
    -20.155  0.1433E+02  0.9916E+01
    -20.141  0.1432E+02  0.1013E+02
    -20.126  0.1432E+02  0.1034E+02
    -20.111  0.1433E+02  0.1055E+02
    -20.097  0.1435E+02  0.1076E+02
    -20.082  0.1439E+02  0.1097E+02
    -20.067  0.1443E+02  0.1118E+02
    -20.052  0.1448E+02  0.1140E+02
    -20.038  0.1454E+02  0.1161E+02
    -20.023  0.1461E+02  0.1182E+02
    -20.008  0.1468E+02  0.1204E+02
    -19.994  0.1475E+02  0.1226E+02
    -19.979  0.1481E+02  0.1248E+02
    -19.964  0.1488E+02  0.1269E+02
    -19.949  0.1493E+02  0.1291E+02
    -19.935  0.1498E+02  0.1313E+02
    -19.920  0.1501E+02  0.1335E+02
    -19.905  0.1504E+02  0.1358E+02
    -19.891  0.1505E+02  0.1380E+02
    -19.876  0.1505E+02  0.1402E+02
    -19.861  0.1504E+02  0.1424E+02
    -19.847  0.1502E+02  0.1446E+02
    -19.832  0.1499E+02  0.1468E+02
    -19.817  0.1495E+02  0.1490E+02
    -19.802  0.1490E+02  0.1512E+02
    -19.788  0.1484E+02  0.1534E+02
    -19.773  0.1478E+02  0.1556E+02
    -19.758  0.1471E+02  0.1577E+02
    -19.744  0.1464E+02  0.1599E+02
    -19.729  0.1457E+02  0.1620E+02
    -19.714  0.1449E+02  0.1641E+02
    -19.699  0.1442E+02  0.1663E+02
    -19.685  0.1434E+02  0.1684E+02
    -19.670  0.1427E+02  0.1705E+02
    -19.655  0.1420E+02  0.1726E+02
    -19.641  0.1414E+02  0.1746E+02
    -19.626  0.1409E+02  0.1767E+02
    -19.611  0.1404E+02  0.1788E+02
    -19.597  0.1401E+02  0.1808E+02
    -19.582  0.1400E+02  0.1829E+02
    -19.567  0.1401E+02  0.1850E+02
    -19.552  0.1404E+02  0.1870E+02
    -19.538  0.1409E+02  0.1891E+02
    -19.523  0.1416E+02  0.1912E+02
    -19.508  0.1427E+02  0.1933E+02
    -19.494  0.1440E+02  0.1954E+02
    -19.479  0.1455E+02  0.1975E+02
    -19.464  0.1473E+02  0.1997E+02
    -19.449  0.1492E+02  0.2019E+02
    -19.435  0.1512E+02  0.2041E+02
    -19.420  0.1533E+02  0.2064E+02
    -19.405  0.1554E+02  0.2087E+02
    -19.391  0.1574E+02  0.2110E+02
    -19.376  0.1592E+02  0.2133E+02
    -19.361  0.1607E+02  0.2157E+02
    -19.347  0.1619E+02  0.2181E+02
    -19.332  0.1626E+02  0.2205E+02
    -19.317  0.1629E+02  0.2228E+02
    -19.302  0.1626E+02  0.2252E+02
    -19.288  0.1617E+02  0.2276E+02
    -19.273  0.1603E+02  0.2300E+02
    -19.258  0.1583E+02  0.2323E+02
    -19.244  0.1559E+02  0.2346E+02
    -19.229  0.1529E+02  0.2368E+02
    -19.214  0.1497E+02  0.2390E+02
    -19.199  0.1462E+02  0.2412E+02
    -19.185  0.1425E+02  0.2433E+02
    -19.170  0.1389E+02  0.2453E+02
    -19.155  0.1354E+02  0.2473E+02
    -19.141  0.1321E+02  0.2493E+02
    -19.126  0.1293E+02  0.2512E+02
    -19.111  0.1270E+02  0.2530E+02
    -19.097  0.1254E+02  0.2549E+02
    -19.082  0.1244E+02  0.2567E+02
    -19.067  0.1242E+02  0.2585E+02
    -19.052  0.1249E+02  0.2604E+02
    -19.038  0.1263E+02  0.2622E+02
    -19.023  0.1285E+02  0.2641E+02
    -19.008  0.1313E+02  0.2661E+02
    -18.994  0.1348E+02  0.2680E+02
    -18.979  0.1388E+02  0.2701E+02
    -18.964  0.1430E+02  0.2722E+02
    -18.949  0.1475E+02  0.2743E+02
    -18.935  0.1520E+02  0.2766E+02
    -18.920  0.1564E+02  0.2789E+02
    -18.905  0.1605E+02  0.2812E+02
    -18.891  0.1641E+02  0.2837E+02
    -18.876  0.1673E+02  0.2861E+02
    -18.861  0.1698E+02  0.2886E+02
    -18.847  0.1717E+02  0.2911E+02
    -18.832  0.1728E+02  0.2937E+02
    -18.817  0.1732E+02  0.2962E+02
    -18.802  0.1729E+02  0.2988E+02
    -18.788  0.1720E+02  0.3013E+02
    -18.773  0.1705E+02  0.3038E+02
    -18.758  0.1685E+02  0.3063E+02
    -18.744  0.1662E+02  0.3087E+02
    -18.729  0.1635E+02  0.3111E+02
    -18.714  0.1607E+02  0.3135E+02
    -18.699  0.1578E+02  0.3158E+02
    -18.685  0.1548E+02  0.3181E+02
    -18.670  0.1520E+02  0.3203E+02
    -18.655  0.1494E+02  0.3225E+02
    -18.641  0.1469E+02  0.3247E+02
    -18.626  0.1447E+02  0.3268E+02
    -18.611  0.1427E+02  0.3289E+02
    -18.596  0.1409E+02  0.3310E+02
    -18.582  0.1395E+02  0.3330E+02
    -18.567  0.1382E+02  0.3351E+02
    -18.552  0.1372E+02  0.3371E+02
    -18.538  0.1363E+02  0.3391E+02
    -18.523  0.1356E+02  0.3411E+02
    -18.508  0.1351E+02  0.3431E+02
    -18.494  0.1347E+02  0.3451E+02
    -18.479  0.1344E+02  0.3470E+02
    -18.464  0.1342E+02  0.3490E+02
    -18.449  0.1342E+02  0.3510E+02
    -18.435  0.1343E+02  0.3530E+02
    -18.420  0.1345E+02  0.3549E+02
    -18.405  0.1348E+02  0.3569E+02
    -18.391  0.1354E+02  0.3589E+02
    -18.376  0.1361E+02  0.3609E+02
    -18.361  0.1371E+02  0.3629E+02
    -18.346  0.1383E+02  0.3650E+02
    -18.332  0.1398E+02  0.3670E+02
    -18.317  0.1415E+02  0.3691E+02
    -18.302  0.1434E+02  0.3712E+02
    -18.288  0.1456E+02  0.3733E+02
    -18.273  0.1480E+02  0.3755E+02
    -18.258  0.1505E+02  0.3777E+02
    -18.244  0.1532E+02  0.3800E+02
    -18.229  0.1559E+02  0.3823E+02
    -18.214  0.1587E+02  0.3846E+02
    -18.199  0.1614E+02  0.3870E+02
    -18.185  0.1640E+02  0.3894E+02
    -18.170  0.1665E+02  0.3918E+02
    -18.155  0.1687E+02  0.3943E+02
    -18.141  0.1707E+02  0.3968E+02
    -18.126  0.1724E+02  0.3994E+02
    -18.111  0.1737E+02  0.4019E+02
    -18.096  0.1747E+02  0.4045E+02
    -18.082  0.1752E+02  0.4071E+02
    -18.067  0.1753E+02  0.4097E+02
    -18.052  0.1751E+02  0.4122E+02
    -18.038  0.1744E+02  0.4148E+02
    -18.023  0.1733E+02  0.4173E+02
    -18.008  0.1718E+02  0.4199E+02
    -17.994  0.1700E+02  0.4224E+02
    -17.979  0.1679E+02  0.4248E+02
    -17.964  0.1655E+02  0.4273E+02
    -17.949  0.1627E+02  0.4297E+02
    -17.935  0.1598E+02  0.4320E+02
    -17.920  0.1566E+02  0.4343E+02
    -17.905  0.1532E+02  0.4366E+02
    -17.891  0.1497E+02  0.4388E+02
    -17.876  0.1460E+02  0.4409E+02
    -17.861  0.1423E+02  0.4430E+02
    -17.846  0.1386E+02  0.4451E+02
    -17.832  0.1349E+02  0.4470E+02
    -17.817  0.1313E+02  0.4490E+02
    -17.802  0.1279E+02  0.4508E+02
    -17.788  0.1248E+02  0.4527E+02
    -17.773  0.1220E+02  0.4545E+02
    -17.758  0.1197E+02  0.4562E+02
    -17.744  0.1180E+02  0.4580E+02
    -17.729  0.1169E+02  0.4597E+02
    -17.714  0.1166E+02  0.4614E+02
    -17.699  0.1170E+02  0.4631E+02
    -17.685  0.1182E+02  0.4649E+02
    -17.670  0.1203E+02  0.4666E+02
    -17.655  0.1231E+02  0.4684E+02
    -17.641  0.1267E+02  0.4703E+02
    -17.626  0.1310E+02  0.4722E+02
    -17.611  0.1358E+02  0.4742E+02
    -17.596  0.1412E+02  0.4763E+02
    -17.582  0.1468E+02  0.4785E+02
    -17.567  0.1526E+02  0.4807E+02
    -17.552  0.1584E+02  0.4830E+02
    -17.538  0.1641E+02  0.4855E+02
    -17.523  0.1694E+02  0.4879E+02
    -17.508  0.1743E+02  0.4905E+02
    -17.493  0.1787E+02  0.4931E+02
    -17.479  0.1824E+02  0.4958E+02
    -17.464  0.1854E+02  0.4985E+02
    -17.449  0.1877E+02  0.5013E+02
    -17.435  0.1891E+02  0.5041E+02
    -17.420  0.1897E+02  0.5069E+02
    -17.405  0.1896E+02  0.5097E+02
    -17.391  0.1888E+02  0.5124E+02
    -17.376  0.1873E+02  0.5152E+02
    -17.361  0.1852E+02  0.5179E+02
    -17.346  0.1826E+02  0.5206E+02
    -17.332  0.1796E+02  0.5232E+02
    -17.317  0.1763E+02  0.5258E+02
    -17.302  0.1728E+02  0.5284E+02
    -17.288  0.1691E+02  0.5309E+02
    -17.273  0.1654E+02  0.5333E+02
    -17.258  0.1617E+02  0.5357E+02
    -17.243  0.1580E+02  0.5380E+02
    -17.229  0.1545E+02  0.5403E+02
    -17.214  0.1512E+02  0.5425E+02
    -17.199  0.1481E+02  0.5447E+02
    -17.185  0.1452E+02  0.5468E+02
    -17.170  0.1427E+02  0.5489E+02
    -17.155  0.1405E+02  0.5510E+02
    -17.141  0.1386E+02  0.5530E+02
    -17.126  0.1371E+02  0.5550E+02
    -17.111  0.1360E+02  0.5570E+02
    -17.096  0.1353E+02  0.5590E+02
    -17.082  0.1349E+02  0.5610E+02
    -17.067  0.1350E+02  0.5630E+02
    -17.052  0.1355E+02  0.5650E+02
    -17.038  0.1364E+02  0.5670E+02
    -17.023  0.1377E+02  0.5690E+02
    -17.008  0.1393E+02  0.5711E+02
    -16.993  0.1412E+02  0.5731E+02
    -16.979  0.1434E+02  0.5752E+02
    -16.964  0.1457E+02  0.5774E+02
    -16.949  0.1483E+02  0.5796E+02
    -16.935  0.1508E+02  0.5818E+02
    -16.920  0.1534E+02  0.5840E+02
    -16.905  0.1558E+02  0.5863E+02
    -16.891  0.1581E+02  0.5887E+02
    -16.876  0.1601E+02  0.5910E+02
    -16.861  0.1617E+02  0.5934E+02
    -16.846  0.1630E+02  0.5958E+02
    -16.832  0.1639E+02  0.5982E+02
    -16.817  0.1643E+02  0.6006E+02
    -16.802  0.1643E+02  0.6030E+02
    -16.788  0.1638E+02  0.6054E+02
    -16.773  0.1630E+02  0.6078E+02
    -16.758  0.1618E+02  0.6102E+02
    -16.743  0.1603E+02  0.6126E+02
    -16.729  0.1587E+02  0.6149E+02
    -16.714  0.1570E+02  0.6172E+02
    -16.699  0.1554E+02  0.6195E+02
    -16.685  0.1538E+02  0.6218E+02
    -16.670  0.1525E+02  0.6240E+02
    -16.655  0.1515E+02  0.6262E+02
    -16.641  0.1509E+02  0.6285E+02
    -16.626  0.1507E+02  0.6307E+02
    -16.611  0.1510E+02  0.6329E+02
    -16.596  0.1517E+02  0.6351E+02
    -16.582  0.1529E+02  0.6374E+02
    -16.567  0.1545E+02  0.6396E+02
    -16.552  0.1565E+02  0.6419E+02
    -16.538  0.1587E+02  0.6443E+02
    -16.523  0.1612E+02  0.6467E+02
    -16.508  0.1639E+02  0.6491E+02
    -16.493  0.1665E+02  0.6515E+02
    -16.479  0.1692E+02  0.6540E+02
    -16.464  0.1717E+02  0.6565E+02
    -16.449  0.1740E+02  0.6591E+02
    -16.435  0.1760E+02  0.6617E+02
    -16.420  0.1778E+02  0.6643E+02
    -16.405  0.1791E+02  0.6669E+02
    -16.391  0.1801E+02  0.6696E+02
    -16.376  0.1807E+02  0.6722E+02
    -16.361  0.1809E+02  0.6749E+02
    -16.346  0.1808E+02  0.6775E+02
    -16.332  0.1802E+02  0.6802E+02
    -16.317  0.1794E+02  0.6828E+02
    -16.302  0.1782E+02  0.6855E+02
    -16.288  0.1768E+02  0.6881E+02
    -16.273  0.1752E+02  0.6906E+02
    -16.258  0.1735E+02  0.6932E+02
    -16.243  0.1717E+02  0.6957E+02
    -16.229  0.1699E+02  0.6982E+02
    -16.214  0.1681E+02  0.7007E+02
    -16.199  0.1663E+02  0.7031E+02
    -16.185  0.1647E+02  0.7055E+02
    -16.170  0.1632E+02  0.7080E+02
    -16.155  0.1619E+02  0.7103E+02
    -16.140  0.1608E+02  0.7127E+02
    -16.126  0.1599E+02  0.7150E+02
    -16.111  0.1592E+02  0.7174E+02
    -16.096  0.1588E+02  0.7197E+02
    -16.082  0.1585E+02  0.7221E+02
    -16.067  0.1584E+02  0.7244E+02
    -16.052  0.1586E+02  0.7267E+02
    -16.038  0.1588E+02  0.7291E+02
    -16.023  0.1592E+02  0.7314E+02
    -16.008  0.1597E+02  0.7337E+02
    -15.993  0.1604E+02  0.7361E+02
    -15.979  0.1611E+02  0.7385E+02
    -15.964  0.1620E+02  0.7409E+02
    -15.949  0.1630E+02  0.7433E+02
    -15.935  0.1641E+02  0.7457E+02
    -15.920  0.1653E+02  0.7481E+02
    -15.905  0.1667E+02  0.7505E+02
    -15.890  0.1683E+02  0.7530E+02
    -15.876  0.1700E+02  0.7555E+02
    -15.861  0.1719E+02  0.7581E+02
    -15.846  0.1740E+02  0.7606E+02
    -15.832  0.1762E+02  0.7632E+02
    -15.817  0.1787E+02  0.7658E+02
    -15.802  0.1812E+02  0.7685E+02
    -15.788  0.1839E+02  0.7712E+02
    -15.773  0.1866E+02  0.7739E+02
    -15.758  0.1894E+02  0.7767E+02
    -15.743  0.1921E+02  0.7796E+02
    -15.729  0.1946E+02  0.7824E+02
    -15.714  0.1971E+02  0.7853E+02
    -15.699  0.1993E+02  0.7882E+02
    -15.685  0.2012E+02  0.7912E+02
    -15.670  0.2028E+02  0.7942E+02
    -15.655  0.2040E+02  0.7972E+02
    -15.640  0.2049E+02  0.8002E+02
    -15.626  0.2053E+02  0.8032E+02
    -15.611  0.2053E+02  0.8062E+02
    -15.596  0.2050E+02  0.8093E+02
    -15.582  0.2042E+02  0.8123E+02
    -15.567  0.2030E+02  0.8152E+02
    -15.552  0.2015E+02  0.8182E+02
    -15.538  0.1997E+02  0.8211E+02
    -15.523  0.1976E+02  0.8240E+02
    -15.508  0.1952E+02  0.8269E+02
    -15.493  0.1927E+02  0.8298E+02
    -15.479  0.1899E+02  0.8325E+02
    -15.464  0.1870E+02  0.8353E+02
    -15.449  0.1839E+02  0.8380E+02
    -15.435  0.1807E+02  0.8407E+02
    -15.420  0.1773E+02  0.8433E+02
    -15.405  0.1738E+02  0.8458E+02
    -15.390  0.1701E+02  0.8483E+02
    -15.376  0.1664E+02  0.8508E+02
    -15.361  0.1624E+02  0.8532E+02
    -15.346  0.1584E+02  0.8555E+02
    -15.332  0.1542E+02  0.8578E+02
    -15.317  0.1499E+02  0.8600E+02
    -15.302  0.1455E+02  0.8621E+02
    -15.288  0.1411E+02  0.8642E+02
    -15.273  0.1366E+02  0.8662E+02
    -15.258  0.1321E+02  0.8681E+02
    -15.243  0.1276E+02  0.8700E+02
    -15.229  0.1232E+02  0.8718E+02
    -15.214  0.1190E+02  0.8736E+02
    -15.199  0.1149E+02  0.8753E+02
    -15.185  0.1110E+02  0.8769E+02
    -15.170  0.1073E+02  0.8785E+02
    -15.155  0.1039E+02  0.8800E+02
    -15.140  0.1008E+02  0.8815E+02
    -15.126  0.9805E+01  0.8829E+02
    -15.111  0.9558E+01  0.8843E+02
    -15.096  0.9343E+01  0.8857E+02
    -15.082  0.9161E+01  0.8870E+02
    -15.067  0.9012E+01  0.8884E+02
    -15.052  0.8895E+01  0.8897E+02
    -15.038  0.8810E+01  0.8910E+02
    -15.023  0.8754E+01  0.8923E+02
    -15.008  0.8726E+01  0.8935E+02
    -14.993  0.8724E+01  0.8948E+02
    -14.979  0.8747E+01  0.8961E+02
    -14.964  0.8792E+01  0.8974E+02
    -14.949  0.8855E+01  0.8987E+02
    -14.935  0.8935E+01  0.9000E+02
    -14.920  0.9027E+01  0.9013E+02
    -14.905  0.9128E+01  0.9027E+02
    -14.890  0.9234E+01  0.9040E+02
    -14.876  0.9342E+01  0.9054E+02
    -14.861  0.9447E+01  0.9068E+02
    -14.846  0.9547E+01  0.9082E+02
    -14.832  0.9637E+01  0.9096E+02
    -14.817  0.9716E+01  0.9111E+02
    -14.802  0.9783E+01  0.9125E+02
    -14.787  0.9835E+01  0.9139E+02
    -14.773  0.9874E+01  0.9154E+02
    -14.758  0.9901E+01  0.9169E+02
    -14.743  0.9918E+01  0.9183E+02
    -14.729  0.9929E+01  0.9198E+02
    -14.714  0.9937E+01  0.9212E+02
    -14.699  0.9948E+01  0.9227E+02
    -14.685  0.9966E+01  0.9242E+02
    -14.670  0.9997E+01  0.9256E+02
    -14.655  0.1005E+02  0.9271E+02
    -14.640  0.1011E+02  0.9286E+02
    -14.626  0.1021E+02  0.9301E+02
    -14.611  0.1033E+02  0.9316E+02
    -14.596  0.1048E+02  0.9332E+02
    -14.582  0.1065E+02  0.9347E+02
    -14.567  0.1086E+02  0.9363E+02
    -14.552  0.1108E+02  0.9380E+02
    -14.537  0.1133E+02  0.9396E+02
    -14.523  0.1158E+02  0.9413E+02
    -14.508  0.1185E+02  0.9431E+02
    -14.493  0.1212E+02  0.9448E+02
    -14.479  0.1239E+02  0.9467E+02
    -14.464  0.1265E+02  0.9485E+02
    -14.449  0.1289E+02  0.9504E+02
    -14.435  0.1312E+02  0.9524E+02
    -14.420  0.1332E+02  0.9543E+02
    -14.405  0.1350E+02  0.9563E+02
    -14.390  0.1365E+02  0.9583E+02
    -14.376  0.1378E+02  0.9603E+02
    -14.361  0.1388E+02  0.9624E+02
    -14.346  0.1395E+02  0.9644E+02
    -14.332  0.1399E+02  0.9665E+02
    -14.317  0.1402E+02  0.9685E+02
    -14.302  0.1402E+02  0.9706E+02
    -14.287  0.1401E+02  0.9727E+02
    -14.273  0.1398E+02  0.9747E+02
    -14.258  0.1394E+02  0.9768E+02
    -14.243  0.1391E+02  0.9788E+02
    -14.229  0.1387E+02  0.9809E+02
    -14.214  0.1384E+02  0.9829E+02
    -14.199  0.1382E+02  0.9849E+02
    -14.185  0.1381E+02  0.9870E+02
    -14.170  0.1384E+02  0.9890E+02
    -14.155  0.1388E+02  0.9910E+02
    -14.140  0.1396E+02  0.9931E+02
    -14.126  0.1408E+02  0.9952E+02
    -14.111  0.1424E+02  0.9973E+02
    -14.096  0.1444E+02  0.9994E+02
    -14.082  0.1468E+02  0.1002E+03
    -14.067  0.1496E+02  0.1004E+03
    -14.052  0.1529E+02  0.1006E+03
    -14.037  0.1565E+02  0.1008E+03
    -14.023  0.1605E+02  0.1011E+03
    -14.008  0.1648E+02  0.1013E+03
    -13.993  0.1692E+02  0.1016E+03
    -13.979  0.1738E+02  0.1018E+03
    -13.964  0.1783E+02  0.1021E+03
    -13.949  0.1829E+02  0.1023E+03
    -13.935  0.1872E+02  0.1026E+03
    -13.920  0.1912E+02  0.1029E+03
    -13.905  0.1950E+02  0.1032E+03
    -13.890  0.1982E+02  0.1035E+03
    -13.876  0.2010E+02  0.1038E+03
    -13.861  0.2032E+02  0.1041E+03
    -13.846  0.2049E+02  0.1044E+03
    -13.832  0.2060E+02  0.1047E+03
    -13.817  0.2065E+02  0.1050E+03
    -13.802  0.2064E+02  0.1053E+03
    -13.787  0.2058E+02  0.1056E+03
    -13.773  0.2048E+02  0.1059E+03
    -13.758  0.2034E+02  0.1062E+03
    -13.743  0.2016E+02  0.1065E+03
    -13.729  0.1997E+02  0.1068E+03
    -13.714  0.1975E+02  0.1071E+03
    -13.699  0.1953E+02  0.1074E+03
    -13.685  0.1932E+02  0.1076E+03
    -13.670  0.1910E+02  0.1079E+03
    -13.655  0.1891E+02  0.1082E+03
    -13.640  0.1873E+02  0.1085E+03
    -13.626  0.1857E+02  0.1087E+03
    -13.611  0.1843E+02  0.1090E+03
    -13.596  0.1832E+02  0.1093E+03
    -13.582  0.1824E+02  0.1096E+03
    -13.567  0.1817E+02  0.1098E+03
    -13.552  0.1814E+02  0.1101E+03
    -13.537  0.1812E+02  0.1104E+03
    -13.523  0.1812E+02  0.1106E+03
    -13.508  0.1813E+02  0.1109E+03
    -13.493  0.1815E+02  0.1112E+03
    -13.479  0.1817E+02  0.1114E+03
    -13.464  0.1819E+02  0.1117E+03
    -13.449  0.1821E+02  0.1120E+03
    -13.434  0.1822E+02  0.1122E+03
    -13.420  0.1821E+02  0.1125E+03
    -13.405  0.1819E+02  0.1128E+03
    -13.390  0.1815E+02  0.1130E+03
    -13.376  0.1809E+02  0.1133E+03
    -13.361  0.1800E+02  0.1136E+03
    -13.346  0.1789E+02  0.1138E+03
    -13.332  0.1775E+02  0.1141E+03
    -13.317  0.1759E+02  0.1143E+03
    -13.302  0.1741E+02  0.1146E+03
    -13.287  0.1722E+02  0.1149E+03
    -13.273  0.1702E+02  0.1151E+03
    -13.258  0.1681E+02  0.1153E+03
    -13.243  0.1661E+02  0.1156E+03
    -13.229  0.1641E+02  0.1158E+03
    -13.214  0.1624E+02  0.1161E+03
    -13.199  0.1609E+02  0.1163E+03
    -13.184  0.1597E+02  0.1165E+03
    -13.170  0.1588E+02  0.1168E+03
    -13.155  0.1584E+02  0.1170E+03
    -13.140  0.1584E+02  0.1172E+03
    -13.126  0.1588E+02  0.1175E+03
    -13.111  0.1596E+02  0.1177E+03
    -13.096  0.1608E+02  0.1179E+03
    -13.082  0.1623E+02  0.1182E+03
    -13.067  0.1640E+02  0.1184E+03
    -13.052  0.1660E+02  0.1187E+03
    -13.037  0.1680E+02  0.1189E+03
    -13.023  0.1701E+02  0.1192E+03
    -13.008  0.1721E+02  0.1194E+03
    -12.993  0.1739E+02  0.1197E+03
    -12.979  0.1755E+02  0.1199E+03
    -12.964  0.1768E+02  0.1202E+03
    -12.949  0.1778E+02  0.1205E+03
    -12.934  0.1784E+02  0.1207E+03
    -12.920  0.1786E+02  0.1210E+03
    -12.905  0.1785E+02  0.1212E+03
    -12.890  0.1781E+02  0.1215E+03
    -12.876  0.1773E+02  0.1218E+03
    -12.861  0.1763E+02  0.1220E+03
    -12.846  0.1751E+02  0.1223E+03
    -12.832  0.1737E+02  0.1225E+03
    -12.817  0.1722E+02  0.1228E+03
    -12.802  0.1707E+02  0.1230E+03
    -12.787  0.1691E+02  0.1233E+03
    -12.773  0.1676E+02  0.1235E+03
    -12.758  0.1661E+02  0.1238E+03
    -12.743  0.1646E+02  0.1240E+03
    -12.729  0.1632E+02  0.1243E+03
    -12.714  0.1619E+02  0.1245E+03
    -12.699  0.1606E+02  0.1247E+03
    -12.684  0.1594E+02  0.1250E+03
    -12.670  0.1582E+02  0.1252E+03
    -12.655  0.1571E+02  0.1254E+03
    -12.640  0.1560E+02  0.1257E+03
    -12.626  0.1548E+02  0.1259E+03
    -12.611  0.1537E+02  0.1261E+03
    -12.596  0.1525E+02  0.1263E+03
    -12.582  0.1513E+02  0.1266E+03
    -12.567  0.1500E+02  0.1268E+03
    -12.552  0.1486E+02  0.1270E+03
    -12.537  0.1471E+02  0.1272E+03
    -12.523  0.1454E+02  0.1274E+03
    -12.508  0.1436E+02  0.1276E+03
    -12.493  0.1417E+02  0.1279E+03
    -12.479  0.1396E+02  0.1281E+03
    -12.464  0.1374E+02  0.1283E+03
    -12.449  0.1350E+02  0.1285E+03
    -12.434  0.1324E+02  0.1287E+03
    -12.420  0.1298E+02  0.1288E+03
    -12.405  0.1270E+02  0.1290E+03
    -12.390  0.1242E+02  0.1292E+03
    -12.376  0.1214E+02  0.1294E+03
    -12.361  0.1187E+02  0.1296E+03
    -12.346  0.1161E+02  0.1297E+03
    -12.332  0.1136E+02  0.1299E+03
    -12.317  0.1114E+02  0.1301E+03
    -12.302  0.1094E+02  0.1302E+03
    -12.287  0.1078E+02  0.1304E+03
    -12.273  0.1066E+02  0.1305E+03
    -12.258  0.1058E+02  0.1307E+03
    -12.243  0.1055E+02  0.1309E+03
    -12.229  0.1056E+02  0.1310E+03
    -12.214  0.1063E+02  0.1312E+03
    -12.199  0.1074E+02  0.1313E+03
    -12.184  0.1089E+02  0.1315E+03
    -12.170  0.1109E+02  0.1317E+03
    -12.155  0.1133E+02  0.1318E+03
    -12.140  0.1161E+02  0.1320E+03
    -12.126  0.1191E+02  0.1322E+03
    -12.111  0.1225E+02  0.1323E+03
    -12.096  0.1261E+02  0.1325E+03
    -12.081  0.1298E+02  0.1327E+03
    -12.067  0.1337E+02  0.1329E+03
    -12.052  0.1377E+02  0.1331E+03
    -12.037  0.1417E+02  0.1333E+03
    -12.023  0.1457E+02  0.1335E+03
    -12.008  0.1497E+02  0.1338E+03
    -11.993  0.1536E+02  0.1340E+03
    -11.979  0.1573E+02  0.1342E+03
    -11.964  0.1609E+02  0.1345E+03
    -11.949  0.1643E+02  0.1347E+03
    -11.934  0.1675E+02  0.1349E+03
    -11.920  0.1705E+02  0.1352E+03
    -11.905  0.1731E+02  0.1355E+03
    -11.890  0.1754E+02  0.1357E+03
    -11.876  0.1773E+02  0.1360E+03
    -11.861  0.1789E+02  0.1362E+03
    -11.846  0.1800E+02  0.1365E+03
    -11.831  0.1808E+02  0.1368E+03
    -11.817  0.1812E+02  0.1370E+03
    -11.802  0.1812E+02  0.1373E+03
    -11.787  0.1809E+02  0.1376E+03
    -11.773  0.1803E+02  0.1378E+03
    -11.758  0.1794E+02  0.1381E+03
    -11.743  0.1783E+02  0.1384E+03
    -11.729  0.1770E+02  0.1386E+03
    -11.714  0.1756E+02  0.1389E+03
    -11.699  0.1742E+02  0.1391E+03
    -11.684  0.1727E+02  0.1394E+03
    -11.670  0.1713E+02  0.1396E+03
    -11.655  0.1700E+02  0.1399E+03
    -11.640  0.1688E+02  0.1401E+03
    -11.626  0.1678E+02  0.1404E+03
    -11.611  0.1668E+02  0.1406E+03
    -11.596  0.1661E+02  0.1409E+03
    -11.581  0.1654E+02  0.1411E+03
    -11.567  0.1650E+02  0.1414E+03
    -11.552  0.1646E+02  0.1416E+03
    -11.537  0.1643E+02  0.1418E+03
    -11.523  0.1642E+02  0.1421E+03
    -11.508  0.1640E+02  0.1423E+03
    -11.493  0.1639E+02  0.1426E+03
    -11.479  0.1638E+02  0.1428E+03
    -11.464  0.1637E+02  0.1430E+03
    -11.449  0.1635E+02  0.1433E+03
    -11.434  0.1632E+02  0.1435E+03
    -11.420  0.1628E+02  0.1438E+03
    -11.405  0.1623E+02  0.1440E+03
    -11.390  0.1616E+02  0.1442E+03
    -11.376  0.1607E+02  0.1445E+03
    -11.361  0.1596E+02  0.1447E+03
    -11.346  0.1584E+02  0.1449E+03
    -11.331  0.1569E+02  0.1452E+03
    -11.317  0.1553E+02  0.1454E+03
    -11.302  0.1535E+02  0.1456E+03
    -11.287  0.1516E+02  0.1459E+03
    -11.273  0.1497E+02  0.1461E+03
    -11.258  0.1478E+02  0.1463E+03
    -11.243  0.1460E+02  0.1465E+03
    -11.229  0.1444E+02  0.1467E+03
    -11.214  0.1431E+02  0.1469E+03
    -11.199  0.1421E+02  0.1471E+03
    -11.184  0.1417E+02  0.1473E+03
    -11.170  0.1418E+02  0.1476E+03
    -11.155  0.1426E+02  0.1478E+03
    -11.140  0.1441E+02  0.1480E+03
    -11.126  0.1463E+02  0.1482E+03
    -11.111  0.1494E+02  0.1484E+03
    -11.096  0.1532E+02  0.1486E+03
    -11.081  0.1578E+02  0.1489E+03
    -11.067  0.1630E+02  0.1491E+03
    -11.052  0.1688E+02  0.1494E+03
    -11.037  0.1751E+02  0.1496E+03
    -11.023  0.1817E+02  0.1499E+03
    -11.008  0.1885E+02  0.1502E+03
    -10.993  0.1952E+02  0.1504E+03
    -10.979  0.2018E+02  0.1507E+03
    -10.964  0.2079E+02  0.1510E+03
    -10.949  0.2135E+02  0.1514E+03
    -10.934  0.2184E+02  0.1517E+03
    -10.920  0.2223E+02  0.1520E+03
    -10.905  0.2253E+02  0.1523E+03
    -10.890  0.2271E+02  0.1527E+03
    -10.876  0.2278E+02  0.1530E+03
    -10.861  0.2272E+02  0.1533E+03
    -10.846  0.2255E+02  0.1537E+03
    -10.831  0.2227E+02  0.1540E+03
    -10.817  0.2188E+02  0.1543E+03
    -10.802  0.2140E+02  0.1546E+03
    -10.787  0.2084E+02  0.1549E+03
    -10.773  0.2022E+02  0.1552E+03
    -10.758  0.1956E+02  0.1555E+03
    -10.743  0.1888E+02  0.1558E+03
    -10.728  0.1819E+02  0.1561E+03
    -10.714  0.1752E+02  0.1563E+03
    -10.699  0.1689E+02  0.1566E+03