 218 218   0   0
  0.4986112E+02  0.2869978E-08  0.1893695E-08  0.2000000E-08  0.5000000E-15
  1.000000000000000E-004
  CAR 
 unknown system                          
      3.56693794    -24.54561771 2000     -3.53136727      1.00000000
    -24.546  0.0000E+00  0.0000E+00
    -24.532  0.0000E+00  0.0000E+00
    -24.517  0.0000E+00  0.0000E+00
    -24.503  0.0000E+00  0.0000E+00
    -24.489  0.0000E+00  0.0000E+00
    -24.475  0.0000E+00  0.0000E+00
    -24.461  0.0000E+00  0.0000E+00
    -24.447  0.0000E+00  0.0000E+00
    -24.433  0.0000E+00  0.0000E+00
    -24.419  0.0000E+00  0.0000E+00
    -24.405  0.0000E+00  0.0000E+00
    -24.391  0.0000E+00  0.0000E+00
    -24.377  0.0000E+00  0.0000E+00
    -24.363  0.0000E+00  0.0000E+00
    -24.349  0.0000E+00  0.0000E+00
    -24.335  0.0000E+00  0.0000E+00
    -24.321  0.0000E+00  0.0000E+00
    -24.307  0.0000E+00  0.0000E+00
    -24.292  0.0000E+00  0.0000E+00
    -24.278  0.0000E+00  0.0000E+00
    -24.264  0.0000E+00  0.0000E+00
    -24.250  0.0000E+00  0.0000E+00
    -24.236  0.0000E+00  0.0000E+00
    -24.222  0.0000E+00  0.0000E+00
    -24.208  0.0000E+00  0.0000E+00
    -24.194  0.0000E+00  0.0000E+00
    -24.180  0.0000E+00  0.0000E+00
    -24.166  0.0000E+00  0.0000E+00
    -24.152  0.0000E+00  0.0000E+00
    -24.138  0.0000E+00  0.0000E+00
    -24.124  0.0000E+00  0.0000E+00
    -24.110  0.0000E+00  0.0000E+00
    -24.096  0.0000E+00  0.0000E+00
    -24.082  0.0000E+00  0.0000E+00
    -24.067  0.0000E+00  0.0000E+00
    -24.053  0.0000E+00  0.0000E+00
    -24.039  0.0000E+00  0.0000E+00
    -24.025  0.0000E+00  0.0000E+00
    -24.011  0.0000E+00  0.0000E+00
    -23.997  0.0000E+00  0.0000E+00
    -23.983  0.0000E+00  0.0000E+00
    -23.969  0.0000E+00  0.0000E+00
    -23.955  0.0000E+00  0.0000E+00
    -23.941  0.0000E+00  0.0000E+00
    -23.927  0.0000E+00  0.0000E+00
    -23.913  0.0000E+00  0.0000E+00
    -23.899  0.0000E+00  0.0000E+00
    -23.885  0.0000E+00  0.0000E+00
    -23.871  0.0000E+00  0.0000E+00
    -23.857  0.0000E+00  0.0000E+00
    -23.842  0.0000E+00  0.0000E+00
    -23.828  0.0000E+00  0.0000E+00
    -23.814  0.0000E+00  0.0000E+00
    -23.800  0.0000E+00  0.0000E+00
    -23.786  0.0000E+00  0.0000E+00
    -23.772  0.0000E+00  0.0000E+00
    -23.758  0.0000E+00  0.0000E+00
    -23.744  0.0000E+00  0.0000E+00
    -23.730  0.0000E+00  0.0000E+00
    -23.716  0.7894E-14  0.1110E-15
    -23.702  0.1053E-13  0.2591E-15
    -23.688  0.2895E-13  0.6661E-15
    -23.674  0.5789E-13  0.1480E-14
    -23.660  0.1210E-12  0.3183E-14
    -23.646  0.2737E-12  0.7031E-14
    -23.632  0.5921E-12  0.1536E-13
    -23.617  0.1275E-11  0.3328E-13
    -23.603  0.2702E-11  0.7128E-13
    -23.589  0.5687E-11  0.1512E-12
    -23.575  0.1185E-10  0.3178E-12
    -23.561  0.2443E-10  0.6614E-12
    -23.547  0.4990E-10  0.1363E-11
    -23.533  0.1009E-09  0.2782E-11
    -23.519  0.2021E-09  0.5625E-11
    -23.505  0.4007E-09  0.1126E-10
    -23.491  0.7866E-09  0.2232E-10
    -23.477  0.1529E-08  0.4383E-10
    -23.463  0.2943E-08  0.8522E-10
    -23.449  0.5610E-08  0.1641E-09
    -23.435  0.1059E-07  0.3130E-09
    -23.421  0.1978E-07  0.5912E-09
    -23.406  0.3660E-07  0.1106E-08
    -23.392  0.6706E-07  0.2049E-08
    -23.378  0.1217E-06  0.3760E-08
    -23.364  0.2185E-06  0.6833E-08
    -23.350  0.3886E-06  0.1230E-07
    -23.336  0.6844E-06  0.2192E-07
    -23.322  0.1193E-05  0.3871E-07
    -23.308  0.2061E-05  0.6769E-07
    -23.294  0.3523E-05  0.1172E-06
    -23.280  0.5964E-05  0.2011E-06
    -23.266  0.9997E-05  0.3417E-06
    -23.252  0.1659E-04  0.5750E-06
    -23.238  0.2727E-04  0.9585E-06
    -23.224  0.4437E-04  0.1583E-05
    -23.210  0.7150E-04  0.2588E-05
    -23.196  0.1141E-03  0.4192E-05
    -23.181  0.1802E-03  0.6727E-05
    -23.167  0.2819E-03  0.1069E-04
    -23.153  0.4366E-03  0.1683E-04
    -23.139  0.6697E-03  0.2625E-04
    -23.125  0.1017E-02  0.4055E-04
    -23.111  0.1529E-02  0.6206E-04
    -23.097  0.2277E-02  0.9409E-04
    -23.083  0.3358E-02  0.1413E-03
    -23.069  0.4902E-02  0.2102E-03
    -23.055  0.7087E-02  0.3099E-03
    -23.041  0.1014E-01  0.4526E-03
    -23.027  0.1438E-01  0.6548E-03
    -23.013  0.2018E-01  0.9386E-03
    -22.999  0.2805E-01  0.1333E-02
    -22.985  0.3861E-01  0.1876E-02
    -22.971  0.5262E-01  0.2616E-02
    -22.956  0.7103E-01  0.3615E-02
    -22.942  0.9493E-01  0.4950E-02
    -22.928  0.1256E+00  0.6717E-02
    -22.914  0.1647E+00  0.9033E-02
    -22.900  0.2138E+00  0.1204E-01
    -22.886  0.2748E+00  0.1590E-01
    -22.872  0.3499E+00  0.2083E-01
    -22.858  0.4413E+00  0.2703E-01
    -22.844  0.5512E+00  0.3478E-01
    -22.830  0.6820E+00  0.4437E-01
    -22.816  0.8358E+00  0.5613E-01
    -22.802  0.1015E+01  0.7040E-01
    -22.788  0.1221E+01  0.8757E-01
    -22.774  0.1455E+01  0.1080E+00
    -22.760  0.1718E+01  0.1322E+00
    -22.746  0.2011E+01  0.1605E+00
    -22.731  0.2332E+01  0.1933E+00
    -22.717  0.2682E+01  0.2310E+00
    -22.703  0.3058E+01  0.2740E+00
    -22.689  0.3457E+01  0.3226E+00
    -22.675  0.3877E+01  0.3771E+00
    -22.661  0.4313E+01  0.4378E+00
    -22.647  0.4763E+01  0.5048E+00
    -22.633  0.5220E+01  0.5782E+00
    -22.619  0.5682E+01  0.6581E+00
    -22.605  0.6143E+01  0.7445E+00
    -22.591  0.6601E+01  0.8373E+00
    -22.577  0.7052E+01  0.9365E+00
    -22.563  0.7492E+01  0.1042E+01
    -22.549  0.7921E+01  0.1153E+01
    -22.535  0.8337E+01  0.1270E+01
    -22.521  0.8738E+01  0.1393E+01
    -22.506  0.9125E+01  0.1522E+01
    -22.492  0.9497E+01  0.1655E+01
    -22.478  0.9855E+01  0.1794E+01
    -22.464  0.1020E+02  0.1937E+01
    -22.450  0.1052E+02  0.2085E+01
    -22.436  0.1083E+02  0.2238E+01
    -22.422  0.1113E+02  0.2394E+01
    -22.408  0.1140E+02  0.2554E+01
    -22.394  0.1165E+02  0.2718E+01
    -22.380  0.1187E+02  0.2885E+01
    -22.366  0.1207E+02  0.3055E+01
    -22.352  0.1223E+02  0.3227E+01
    -22.338  0.1235E+02  0.3401E+01
    -22.324  0.1244E+02  0.3576E+01
    -22.310  0.1249E+02  0.3751E+01
    -22.295  0.1250E+02  0.3927E+01
    -22.281  0.1248E+02  0.4103E+01
    -22.267  0.1243E+02  0.4277E+01
    -22.253  0.1235E+02  0.4451E+01
    -22.239  0.1226E+02  0.4624E+01
    -22.225  0.1215E+02  0.4794E+01
    -22.211  0.1206E+02  0.4964E+01
    -22.197  0.1198E+02  0.5133E+01
    -22.183  0.1193E+02  0.5300E+01
    -22.169  0.1193E+02  0.5468E+01
    -22.155  0.1199E+02  0.5637E+01
    -22.141  0.1211E+02  0.5807E+01
    -22.127  0.1232E+02  0.5980E+01
    -22.113  0.1261E+02  0.6158E+01
    -22.099  0.1299E+02  0.6340E+01
    -22.085  0.1347E+02  0.6530E+01
    -22.070  0.1404E+02  0.6727E+01
    -22.056  0.1470E+02  0.6934E+01
    -22.042  0.1545E+02  0.7151E+01
    -22.028  0.1627E+02  0.7380E+01
    -22.014  0.1714E+02  0.7621E+01
    -22.000  0.1807E+02  0.7875E+01
    -21.986  0.1902E+02  0.8143E+01
    -21.972  0.1999E+02  0.8424E+01
    -21.958  0.2095E+02  0.8718E+01
    -21.944  0.2189E+02  0.9026E+01
    -21.930  0.2279E+02  0.9347E+01
    -21.916  0.2363E+02  0.9679E+01
    -21.902  0.2441E+02  0.1002E+02
    -21.888  0.2510E+02  0.1038E+02
    -21.874  0.2571E+02  0.1074E+02
    -21.860  0.2623E+02  0.1111E+02
    -21.845  0.2666E+02  0.1148E+02
    -21.831  0.2699E+02  0.1186E+02
    -21.817  0.2724E+02  0.1224E+02
    -21.803  0.2741E+02  0.1263E+02
    -21.789  0.2750E+02  0.1302E+02
    -21.775  0.2754E+02  0.1340E+02
    -21.761  0.2754E+02  0.1379E+02
    -21.747  0.2750E+02  0.1418E+02
    -21.733  0.2744E+02  0.1456E+02
    -21.719  0.2737E+02  0.1495E+02
    -21.705  0.2731E+02  0.1533E+02
    -21.691  0.2725E+02  0.1571E+02
    -21.677  0.2722E+02  0.1610E+02
    -21.663  0.2722E+02  0.1648E+02
    -21.649  0.2724E+02  0.1686E+02
    -21.635  0.2729E+02  0.1725E+02
    -21.620  0.2737E+02  0.1763E+02
    -21.606  0.2747E+02  0.1802E+02
    -21.592  0.2759E+02  0.1841E+02
    -21.578  0.2773E+02  0.1880E+02
    -21.564  0.2788E+02  0.1919E+02
    -21.550  0.2803E+02  0.1958E+02
    -21.536  0.2818E+02  0.1998E+02
    -21.522  0.2834E+02  0.2038E+02
    -21.508  0.2848E+02  0.2078E+02
    -21.494  0.2862E+02  0.2118E+02
    -21.480  0.2875E+02  0.2158E+02
    -21.466  0.2888E+02  0.2199E+02
    -21.452  0.2899E+02  0.2240E+02
    -21.438  0.2911E+02  0.2281E+02
    -21.424  0.2923E+02  0.2322E+02
    -21.409  0.2935E+02  0.2363E+02
    -21.395  0.2947E+02  0.2405E+02
    -21.381  0.2960E+02  0.2446E+02
    -21.367  0.2974E+02  0.2488E+02
    -21.353  0.2989E+02  0.2530E+02
    -21.339  0.3005E+02  0.2572E+02
    -21.325  0.3022E+02  0.2615E+02
    -21.311  0.3039E+02  0.2658E+02
    -21.297  0.3057E+02  0.2701E+02
    -21.283  0.3074E+02  0.2744E+02
    -21.269  0.3090E+02  0.2787E+02
    -21.255  0.3104E+02  0.2831E+02
    -21.241  0.3117E+02  0.2875E+02
    -21.227  0.3128E+02  0.2919E+02
    -21.213  0.3135E+02  0.2963E+02
    -21.199  0.3140E+02  0.3007E+02
    -21.184  0.3142E+02  0.3051E+02
    -21.170  0.3140E+02  0.3095E+02
    -21.156  0.3135E+02  0.3139E+02
    -21.142  0.3127E+02  0.3183E+02
    -21.128  0.3116E+02  0.3227E+02
    -21.114  0.3103E+02  0.3271E+02
    -21.100  0.3088E+02  0.3314E+02
    -21.086  0.3072E+02  0.3358E+02
    -21.072  0.3055E+02  0.3400E+02
    -21.058  0.3038E+02  0.3443E+02
    -21.044  0.3021E+02  0.3486E+02
    -21.030  0.3005E+02  0.3528E+02
    -21.016  0.2990E+02  0.3570E+02
    -21.002  0.2976E+02  0.3612E+02
    -20.988  0.2965E+02  0.3654E+02
    -20.974  0.2955E+02  0.3695E+02
    -20.959  0.2948E+02  0.3737E+02
    -20.945  0.2943E+02  0.3778E+02
    -20.931  0.2941E+02  0.3819E+02
    -20.917  0.2941E+02  0.3861E+02
    -20.903  0.2944E+02  0.3902E+02
    -20.889  0.2950E+02  0.3944E+02
    -20.875  0.2958E+02  0.3985E+02
    -20.861  0.2970E+02  0.4027E+02
    -20.847  0.2983E+02  0.4069E+02
    -20.833  0.2999E+02  0.4111E+02
    -20.819  0.3018E+02  0.4154E+02
    -20.805  0.3039E+02  0.4196E+02
    -20.791  0.3061E+02  0.4239E+02
    -20.777  0.3086E+02  0.4283E+02
    -20.763  0.3111E+02  0.4326E+02
    -20.749  0.3138E+02  0.4371E+02
    -20.734  0.3165E+02  0.4415E+02
    -20.720  0.3191E+02  0.4460E+02
    -20.706  0.3217E+02  0.4505E+02
    -20.692  0.3241E+02  0.4551E+02
    -20.678  0.3264E+02  0.4597E+02
    -20.664  0.3284E+02  0.4643E+02
    -20.650  0.3302E+02  0.4689E+02
    -20.636  0.3316E+02  0.4736E+02
    -20.622  0.3327E+02  0.4783E+02
    -20.608  0.3334E+02  0.4830E+02
    -20.594  0.3338E+02  0.4877E+02
    -20.580  0.3339E+02  0.4924E+02
    -20.566  0.3337E+02  0.4970E+02
    -20.552  0.3333E+02  0.5017E+02
    -20.538  0.3327E+02  0.5064E+02
    -20.524  0.3319E+02  0.5111E+02
    -20.509  0.3311E+02  0.5157E+02
    -20.495  0.3303E+02  0.5204E+02
    -20.481  0.3295E+02  0.5250E+02
    -20.467  0.3289E+02  0.5296E+02
    -20.453  0.3284E+02  0.5343E+02
    -20.439  0.3281E+02  0.5389E+02
    -20.425  0.3281E+02  0.5435E+02
    -20.411  0.3282E+02  0.5481E+02
    -20.397  0.3286E+02  0.5527E+02
    -20.383  0.3292E+02  0.5574E+02
    -20.369  0.3300E+02  0.5620E+02
    -20.355  0.3310E+02  0.5667E+02
    -20.341  0.3321E+02  0.5713E+02
    -20.327  0.3333E+02  0.5760E+02
    -20.313  0.3345E+02  0.5807E+02
    -20.298  0.3357E+02  0.5854E+02
    -20.284  0.3368E+02  0.5902E+02
    -20.270  0.3379E+02  0.5949E+02
    -20.256  0.3389E+02  0.5997E+02
    -20.242  0.3397E+02  0.6045E+02
    -20.228  0.3405E+02  0.6093E+02
    -20.214  0.3411E+02  0.6141E+02
    -20.200  0.3416E+02  0.6189E+02
    -20.186  0.3420E+02  0.6237E+02
    -20.172  0.3424E+02  0.6285E+02
    -20.158  0.3427E+02  0.6333E+02
    -20.144  0.3430E+02  0.6381E+02
    -20.130  0.3433E+02  0.6430E+02
    -20.116  0.3436E+02  0.6478E+02
    -20.102  0.3440E+02  0.6526E+02
    -20.088  0.3444E+02  0.6575E+02
    -20.073  0.3448E+02  0.6623E+02
    -20.059  0.3453E+02  0.6672E+02
    -20.045  0.3458E+02  0.6720E+02
    -20.031  0.3462E+02  0.6769E+02
    -20.017  0.3466E+02  0.6818E+02
    -20.003  0.3470E+02  0.6867E+02
    -19.989  0.3472E+02  0.6915E+02
    -19.975  0.3472E+02  0.6964E+02
    -19.961  0.3472E+02  0.7013E+02
    -19.947  0.3470E+02  0.7062E+02
    -19.933  0.3466E+02  0.7111E+02
    -19.919  0.3461E+02  0.7159E+02
    -19.905  0.3454E+02  0.7208E+02
    -19.891  0.3447E+02  0.7256E+02
    -19.877  0.3440E+02  0.7305E+02
    -19.863  0.3433E+02  0.7353E+02
    -19.848  0.3426E+02  0.7401E+02
    -19.834  0.3420E+02  0.7449E+02
    -19.820  0.3415E+02  0.7497E+02
    -19.806  0.3413E+02  0.7545E+02
    -19.792  0.3411E+02  0.7593E+02
    -19.778  0.3412E+02  0.7641E+02
    -19.764  0.3414E+02  0.7689E+02
    -19.750  0.3418E+02  0.7737E+02
    -19.736  0.3423E+02  0.7785E+02
    -19.722  0.3429E+02  0.7834E+02
    -19.708  0.3435E+02  0.7882E+02
    -19.694  0.3441E+02  0.7930E+02
    -19.680  0.3446E+02  0.7979E+02
    -19.666  0.3450E+02  0.8027E+02
    -19.652  0.3453E+02  0.8076E+02
    -19.638  0.3455E+02  0.8124E+02
    -19.623  0.3455E+02  0.8173E+02
    -19.609  0.3453E+02  0.8222E+02
    -19.595  0.3449E+02  0.8270E+02
    -19.581  0.3445E+02  0.8319E+02
    -19.567  0.3439E+02  0.8367E+02
    -19.553  0.3433E+02  0.8415E+02
    -19.539  0.3426E+02  0.8463E+02
    -19.525  0.3420E+02  0.8511E+02
    -19.511  0.3414E+02  0.8560E+02
    -19.497  0.3410E+02  0.8607E+02
    -19.483  0.3407E+02  0.8655E+02
    -19.469  0.3406E+02  0.8703E+02
    -19.455  0.3407E+02  0.8751E+02
    -19.441  0.3410E+02  0.8799E+02
    -19.427  0.3415E+02  0.8847E+02
    -19.413  0.3423E+02  0.8895E+02
    -19.398  0.3432E+02  0.8944E+02
    -19.384  0.3443E+02  0.8992E+02
    -19.370  0.3456E+02  0.9041E+02
    -19.356  0.3470E+02  0.9089E+02
    -19.342  0.3485E+02  0.9138E+02
    -19.328  0.3500E+02  0.9188E+02
    -19.314  0.3515E+02  0.9237E+02
    -19.300  0.3530E+02  0.9287E+02
    -19.286  0.3545E+02  0.9337E+02
    -19.272  0.3559E+02  0.9387E+02
    -19.258  0.3572E+02  0.9437E+02
    -19.244  0.3585E+02  0.9487E+02
    -19.230  0.3596E+02  0.9538E+02
    -19.216  0.3606E+02  0.9589E+02
    -19.202  0.3615E+02  0.9639E+02
    -19.187  0.3623E+02  0.9690E+02
    -19.173  0.3630E+02  0.9741E+02
    -19.159  0.3636E+02  0.9793E+02
    -19.145  0.3642E+02  0.9844E+02
    -19.131  0.3648E+02  0.9895E+02
    -19.117  0.3654E+02  0.9946E+02
    -19.103  0.3659E+02  0.9998E+02
    -19.089  0.3665E+02  0.1005E+03
    -19.075  0.3671E+02  0.1010E+03
    -19.061  0.3677E+02  0.1015E+03
    -19.047  0.3684E+02  0.1020E+03
    -19.033  0.3690E+02  0.1026E+03
    -19.019  0.3697E+02  0.1031E+03
    -19.005  0.3703E+02  0.1036E+03
    -18.991  0.3709E+02  0.1041E+03
    -18.977  0.3714E+02  0.1046E+03
    -18.962  0.3718E+02  0.1052E+03
    -18.948  0.3721E+02  0.1057E+03
    -18.934  0.3723E+02  0.1062E+03
    -18.920  0.3722E+02  0.1067E+03
    -18.906  0.3720E+02  0.1073E+03
    -18.892  0.3716E+02  0.1078E+03
    -18.878  0.3709E+02  0.1083E+03
    -18.864  0.3700E+02  0.1088E+03
    -18.850  0.3689E+02  0.1093E+03
    -18.836  0.3675E+02  0.1099E+03
    -18.822  0.3660E+02  0.1104E+03
    -18.808  0.3642E+02  0.1109E+03
    -18.794  0.3623E+02  0.1114E+03
    -18.780  0.3603E+02  0.1119E+03
    -18.766  0.3582E+02  0.1124E+03
    -18.752  0.3560E+02  0.1129E+03
    -18.737  0.3539E+02  0.1134E+03
    -18.723  0.3518E+02  0.1139E+03
    -18.709  0.3498E+02  0.1144E+03
    -18.695  0.3480E+02  0.1149E+03
    -18.681  0.3463E+02  0.1154E+03
    -18.667  0.3448E+02  0.1159E+03
    -18.653  0.3436E+02  0.1163E+03
    -18.639  0.3427E+02  0.1168E+03
    -18.625  0.3420E+02  0.1173E+03
    -18.611  0.3416E+02  0.1178E+03
    -18.597  0.3416E+02  0.1183E+03
    -18.583  0.3418E+02  0.1187E+03
    -18.569  0.3424E+02  0.1192E+03
    -18.555  0.3432E+02  0.1197E+03
    -18.541  0.3443E+02  0.1202E+03
    -18.527  0.3457E+02  0.1207E+03
    -18.512  0.3474E+02  0.1212E+03
    -18.498  0.3493E+02  0.1217E+03
    -18.484  0.3514E+02  0.1222E+03
    -18.470  0.3536E+02  0.1227E+03
    -18.456  0.3560E+02  0.1232E+03
    -18.442  0.3585E+02  0.1237E+03
    -18.428  0.3610E+02  0.1242E+03
    -18.414  0.3635E+02  0.1247E+03
    -18.400  0.3660E+02  0.1252E+03
    -18.386  0.3683E+02  0.1257E+03
    -18.372  0.3704E+02  0.1262E+03
    -18.358  0.3723E+02  0.1268E+03
    -18.344  0.3738E+02  0.1273E+03
    -18.330  0.3751E+02  0.1278E+03
    -18.316  0.3760E+02  0.1283E+03
    -18.302  0.3765E+02  0.1289E+03
    -18.287  0.3766E+02  0.1294E+03
    -18.273  0.3763E+02  0.1299E+03
    -18.259  0.3756E+02  0.1305E+03
    -18.245  0.3746E+02  0.1310E+03
    -18.231  0.3732E+02  0.1315E+03
    -18.217  0.3715E+02  0.1320E+03
    -18.203  0.3696E+02  0.1325E+03
    -18.189  0.3676E+02  0.1331E+03
    -18.175  0.3656E+02  0.1336E+03
    -18.161  0.3635E+02  0.1341E+03
    -18.147  0.3615E+02  0.1346E+03
    -18.133  0.3597E+02  0.1351E+03
    -18.119  0.3580E+02  0.1356E+03
    -18.105  0.3567E+02  0.1361E+03
    -18.091  0.3556E+02  0.1366E+03
    -18.076  0.3549E+02  0.1371E+03
    -18.062  0.3545E+02  0.1376E+03
    -18.048  0.3544E+02  0.1381E+03
    -18.034  0.3547E+02  0.1386E+03
    -18.020  0.3552E+02  0.1391E+03
    -18.006  0.3559E+02  0.1396E+03
    -17.992  0.3568E+02  0.1401E+03
    -17.978  0.3579E+02  0.1406E+03
    -17.964  0.3589E+02  0.1411E+03
    -17.950  0.3600E+02  0.1416E+03
    -17.936  0.3609E+02  0.1421E+03
    -17.922  0.3617E+02  0.1426E+03
    -17.908  0.3624E+02  0.1431E+03
    -17.894  0.3628E+02  0.1437E+03
    -17.880  0.3630E+02  0.1442E+03
    -17.866  0.3630E+02  0.1447E+03
    -17.851  0.3628E+02  0.1452E+03
    -17.837  0.3623E+02  0.1457E+03
    -17.823  0.3617E+02  0.1462E+03
    -17.809  0.3610E+02  0.1467E+03
    -17.795  0.3601E+02  0.1472E+03
    -17.781  0.3592E+02  0.1477E+03
    -17.767  0.3583E+02  0.1482E+03
    -17.753  0.3574E+02  0.1487E+03
    -17.739  0.3566E+02  0.1492E+03
    -17.725  0.3558E+02  0.1497E+03
    -17.711  0.3552E+02  0.1502E+03
    -17.697  0.3546E+02  0.1507E+03
    -17.683  0.3541E+02  0.1512E+03
    -17.669  0.3537E+02  0.1517E+03
    -17.655  0.3534E+02  0.1522E+03
    -17.641  0.3530E+02  0.1527E+03
    -17.626  0.3527E+02  0.1532E+03
    -17.612  0.3524E+02  0.1537E+03
    -17.598  0.3519E+02  0.1542E+03
    -17.584  0.3514E+02  0.1547E+03
    -17.570  0.3508E+02  0.1552E+03
    -17.556  0.3500E+02  0.1557E+03
    -17.542  0.3491E+02  0.1562E+03
    -17.528  0.3481E+02  0.1567E+03
    -17.514  0.3470E+02  0.1572E+03
    -17.500  0.3459E+02  0.1576E+03
    -17.486  0.3446E+02  0.1581E+03
    -17.472  0.3434E+02  0.1586E+03
    -17.458  0.3423E+02  0.1591E+03
    -17.444  0.3412E+02  0.1596E+03
    -17.430  0.3404E+02  0.1600E+03
    -17.416  0.3397E+02  0.1605E+03
    -17.401  0.3393E+02  0.1610E+03
    -17.387  0.3392E+02  0.1615E+03
    -17.373  0.3393E+02  0.1620E+03
    -17.359  0.3399E+02  0.1624E+03
    -17.345  0.3407E+02  0.1629E+03
    -17.331  0.3418E+02  0.1634E+03
    -17.317  0.3432E+02  0.1639E+03
    -17.303  0.3447E+02  0.1644E+03
    -17.289  0.3465E+02  0.1648E+03
    -17.275  0.3483E+02  0.1653E+03
    -17.261  0.3501E+02  0.1658E+03
    -17.247  0.3519E+02  0.1663E+03
    -17.233  0.3535E+02  0.1668E+03
    -17.219  0.3550E+02  0.1673E+03
    -17.205  0.3562E+02  0.1678E+03
    -17.191  0.3571E+02  0.1683E+03
    -17.176  0.3577E+02  0.1688E+03
    -17.162  0.3579E+02  0.1693E+03
    -17.148  0.3579E+02  0.1698E+03
    -17.134  0.3575E+02  0.1703E+03
    -17.120  0.3569E+02  0.1708E+03
    -17.106  0.3561E+02  0.1713E+03
    -17.092  0.3552E+02  0.1718E+03
    -17.078  0.3542E+02  0.1723E+03
    -17.064  0.3532E+02  0.1728E+03
    -17.050  0.3523E+02  0.1733E+03
    -17.036  0.3514E+02  0.1738E+03
    -17.022  0.3508E+02  0.1743E+03
    -17.008  0.3503E+02  0.1748E+03
    -16.994  0.3501E+02  0.1753E+03
    -16.980  0.3501E+02  0.1758E+03
    -16.965  0.3504E+02  0.1763E+03
    -16.951  0.3508E+02  0.1768E+03
    -16.937  0.3515E+02  0.1773E+03
    -16.923  0.3522E+02  0.1778E+03
    -16.909  0.3531E+02  0.1783E+03
    -16.895  0.3540E+02  0.1788E+03
    -16.881  0.3550E+02  0.1793E+03
    -16.867  0.3558E+02  0.1798E+03
    -16.853  0.3566E+02  0.1803E+03
    -16.839  0.3572E+02  0.1808E+03
    -16.825  0.3577E+02  0.1813E+03
    -16.811  0.3579E+02  0.1818E+03
    -16.797  0.3580E+02  0.1823E+03
    -16.783  0.3578E+02  0.1828E+03
    -16.769  0.3575E+02  0.1833E+03
    -16.755  0.3570E+02  0.1838E+03
    -16.740  0.3563E+02  0.1843E+03
    -16.726  0.3555E+02  0.1848E+03
    -16.712  0.3546E+02  0.1853E+03
    -16.698  0.3536E+02  0.1858E+03
    -16.684  0.3527E+02  0.1863E+03
    -16.670  0.3518E+02  0.1868E+03
    -16.656  0.3510E+02  0.1873E+03
    -16.642  0.3504E+02  0.1878E+03
    -16.628  0.3500E+02  0.1883E+03
    -16.614  0.3498E+02  0.1887E+03
    -16.600  0.3498E+02  0.1892E+03
    -16.586  0.3502E+02  0.1897E+03
    -16.572  0.3508E+02  0.1902E+03
    -16.558  0.3517E+02  0.1907E+03
    -16.544  0.3529E+02  0.1912E+03
    -16.530  0.3543E+02  0.1917E+03
    -16.515  0.3559E+02  0.1922E+03
    -16.501  0.3577E+02  0.1927E+03
    -16.487  0.3596E+02  0.1932E+03
    -16.473  0.3615E+02  0.1937E+03
    -16.459  0.3634E+02  0.1942E+03
    -16.445  0.3651E+02  0.1948E+03
    -16.431  0.3667E+02  0.1953E+03
    -16.417  0.3679E+02  0.1958E+03
    -16.403  0.3689E+02  0.1963E+03
    -16.389  0.3694E+02  0.1968E+03
    -16.375  0.3695E+02  0.1973E+03
    -16.361  0.3692E+02  0.1979E+03
    -16.347  0.3683E+02  0.1984E+03
    -16.333  0.3669E+02  0.1989E+03
    -16.319  0.3651E+02  0.1994E+03
    -16.305  0.3628E+02  0.1999E+03
    -16.290  0.3601E+02  0.2004E+03
    -16.276  0.3570E+02  0.2009E+03
    -16.262  0.3536E+02  0.2014E+03
    -16.248  0.3500E+02  0.2019E+03
    -16.234  0.3462E+02  0.2024E+03
    -16.220  0.3424E+02  0.2029E+03
    -16.206  0.3386E+02  0.2034E+03
    -16.192  0.3348E+02  0.2038E+03
    -16.178  0.3312E+02  0.2043E+03
    -16.164  0.3279E+02  0.2048E+03
    -16.150  0.3249E+02  0.2052E+03
    -16.136  0.3222E+02  0.2057E+03
    -16.122  0.3200E+02  0.2061E+03
    -16.108  0.3182E+02  0.2066E+03
    -16.094  0.3169E+02  0.2070E+03
    -16.080  0.3161E+02  0.2075E+03
    -16.065  0.3158E+02  0.2079E+03
    -16.051  0.3159E+02  0.2083E+03
    -16.037  0.3165E+02  0.2088E+03
    -16.023  0.3176E+02  0.2092E+03
    -16.009  0.3190E+02  0.2097E+03
    -15.995  0.3208E+02  0.2101E+03
    -15.981  0.3228E+02  0.2106E+03
    -15.967  0.3250E+02  0.2111E+03
    -15.953  0.3274E+02  0.2115E+03
    -15.939  0.3299E+02  0.2120E+03
    -15.925  0.3324E+02  0.2124E+03
    -15.911  0.3349E+02  0.2129E+03
    -15.897  0.3373E+02  0.2134E+03
    -15.883  0.3396E+02  0.2139E+03
    -15.869  0.3417E+02  0.2143E+03
    -15.854  0.3436E+02  0.2148E+03
    -15.840  0.3452E+02  0.2153E+03
    -15.826  0.3466E+02  0.2158E+03
    -15.812  0.3478E+02  0.2163E+03
    -15.798  0.3486E+02  0.2168E+03
    -15.784  0.3492E+02  0.2173E+03
    -15.770  0.3495E+02  0.2178E+03
    -15.756  0.3496E+02  0.2183E+03
    -15.742  0.3494E+02  0.2187E+03
    -15.728  0.3491E+02  0.2192E+03
    -15.714  0.3486E+02  0.2197E+03
    -15.700  0.3480E+02  0.2202E+03
    -15.686  0.3473E+02  0.2207E+03
    -15.672  0.3466E+02  0.2212E+03
    -15.658  0.3458E+02  0.2217E+03
    -15.644  0.3451E+02  0.2222E+03
    -15.629  0.3445E+02  0.2227E+03
    -15.615  0.3440E+02  0.2231E+03
    -15.601  0.3435E+02  0.2236E+03
    -15.587  0.3432E+02  0.2241E+03
    -15.573  0.3431E+02  0.2246E+03
    -15.559  0.3430E+02  0.2251E+03
    -15.545  0.3431E+02  0.2255E+03
    -15.531  0.3432E+02  0.2260E+03
    -15.517  0.3434E+02  0.2265E+03
    -15.503  0.3437E+02  0.2270E+03
    -15.489  0.3440E+02  0.2275E+03
    -15.475  0.3443E+02  0.2280E+03
    -15.461  0.3445E+02  0.2284E+03
    -15.447  0.3448E+02  0.2289E+03
    -15.433  0.3449E+02  0.2294E+03
    -15.419  0.3450E+02  0.2299E+03
    -15.404  0.3451E+02  0.2304E+03
    -15.390  0.3451E+02  0.2309E+03
    -15.376  0.3451E+02  0.2314E+03
    -15.362  0.3451E+02  0.2318E+03
    -15.348  0.3452E+02  0.2323E+03
    -15.334  0.3453E+02  0.2328E+03
    -15.320  0.3455E+02  0.2333E+03
    -15.306  0.3458E+02  0.2338E+03
    -15.292  0.3463E+02  0.2343E+03
    -15.278  0.3470E+02  0.2348E+03
    -15.264  0.3478E+02  0.2353E+03
    -15.250  0.3488E+02  0.2357E+03
    -15.236  0.3501E+02  0.2362E+03
    -15.222  0.3515E+02  0.2367E+03
    -15.208  0.3531E+02  0.2372E+03
    -15.194  0.3549E+02  0.2377E+03
    -15.179  0.3568E+02  0.2382E+03
    -15.165  0.3587E+02  0.2387E+03
    -15.151  0.3608E+02  0.2392E+03
    -15.137  0.3628E+02  0.2398E+03
    -15.123  0.3648E+02  0.2403E+03
    -15.109  0.3667E+02  0.2408E+03
    -15.095  0.3686E+02  0.2413E+03
    -15.081  0.3702E+02  0.2418E+03
    -15.067  0.3717E+02  0.2423E+03
    -15.053  0.3730E+02  0.2429E+03
    -15.039  0.3741E+02  0.2434E+03
    -15.025  0.3748E+02  0.2439E+03
    -15.011  0.3753E+02  0.2444E+03
    -14.997  0.3755E+02  0.2450E+03
    -14.983  0.3754E+02  0.2455E+03
    -14.969  0.3750E+02  0.2460E+03
    -14.954  0.3743E+02  0.2466E+03
    -14.940  0.3733E+02  0.2471E+03
    -14.926  0.3720E+02  0.2476E+03
    -14.912  0.3704E+02  0.2481E+03
    -14.898  0.3686E+02  0.2486E+03
    -14.884  0.3666E+02  0.2492E+03
    -14.870  0.3644E+02  0.2497E+03
    -14.856  0.3621E+02  0.2502E+03
    -14.842  0.3598E+02  0.2507E+03
    -14.828  0.3575E+02  0.2512E+03
    -14.814  0.3552E+02  0.2517E+03
    -14.800  0.3530E+02  0.2522E+03
    -14.786  0.3510E+02  0.2527E+03
    -14.772  0.3492E+02  0.2532E+03
    -14.758  0.3476E+02  0.2537E+03
    -14.743  0.3462E+02  0.2541E+03
    -14.729  0.3452E+02  0.2546E+03
    -14.715  0.3443E+02  0.2551E+03
    -14.701  0.3438E+02  0.2556E+03
    -14.687  0.3435E+02  0.2561E+03
    -14.673  0.3435E+02  0.2566E+03
    -14.659  0.3436E+02  0.2570E+03
    -14.645  0.3440E+02  0.2575E+03
    -14.631  0.3445E+02  0.2580E+03
    -14.617  0.3451E+02  0.2585E+03
    -14.603  0.3459E+02  0.2590E+03
    -14.589  0.3467E+02  0.2595E+03
    -14.575  0.3477E+02  0.2600E+03
    -14.561  0.3488E+02  0.2605E+03
    -14.547  0.3500E+02  0.2609E+03
    -14.533  0.3513E+02  0.2614E+03
    -14.518  0.3528E+02  0.2619E+03
    -14.504  0.3544E+02  0.2624E+03
    -14.490  0.3562E+02  0.2629E+03
    -14.476  0.3582E+02  0.2634E+03
    -14.462  0.3604E+02  0.2639E+03
    -14.448  0.3628E+02  0.2645E+03
    -14.434  0.3655E+02  0.2650E+03
    -14.420  0.3683E+02  0.2655E+03
    -14.406  0.3712E+02  0.2660E+03
    -14.392  0.3743E+02  0.2665E+03
    -14.378  0.3775E+02  0.2671E+03
    -14.364  0.3808E+02  0.2676E+03
    -14.350  0.3841E+02  0.2681E+03
    -14.336  0.3873E+02  0.2687E+03
    -14.322  0.3905E+02  0.2692E+03
    -14.308  0.3934E+02  0.2698E+03
    -14.293  0.3962E+02  0.2703E+03
    -14.279  0.3987E+02  0.2709E+03
    -14.265  0.4009E+02  0.2715E+03
    -14.251  0.4028E+02  0.2720E+03
    -14.237  0.4043E+02  0.2726E+03
    -14.223  0.4054E+02  0.2732E+03
    -14.209  0.4062E+02  0.2738E+03
    -14.195  0.4065E+02  0.2743E+03
    -14.181  0.4065E+02  0.2749E+03
    -14.167  0.4061E+02  0.2755E+03
    -14.153  0.4054E+02  0.2760E+03
    -14.139  0.4045E+02  0.2766E+03
    -14.125  0.4033E+02  0.2772E+03
    -14.111  0.4019E+02  0.2777E+03
    -14.097  0.4005E+02  0.2783E+03
    -14.083  0.3990E+02  0.2789E+03
    -14.068  0.3974E+02  0.2794E+03
    -14.054  0.3959E+02  0.2800E+03
    -14.040  0.3944E+02  0.2805E+03
    -14.026  0.3930E+02  0.2811E+03
    -14.012  0.3917E+02  0.2816E+03
    -13.998  0.3904E+02  0.2822E+03
    -13.984  0.3891E+02  0.2827E+03
    -13.970  0.3879E+02  0.2833E+03
    -13.956  0.3868E+02  0.2838E+03
    -13.942  0.3856E+02  0.2844E+03
    -13.928  0.3843E+02  0.2849E+03
    -13.914  0.3830E+02  0.2854E+03
    -13.900  0.3817E+02  0.2860E+03
    -13.886  0.3802E+02  0.2865E+03
    -13.872  0.3787E+02  0.2870E+03
    -13.858  0.3771E+02  0.2876E+03
    -13.843  0.3755E+02  0.2881E+03
    -13.829  0.3738E+02  0.2886E+03
    -13.815  0.3722E+02  0.2892E+03
    -13.801  0.3706E+02  0.2897E+03
    -13.787  0.3692E+02  0.2902E+03
    -13.773  0.3679E+02  0.2907E+03
    -13.759  0.3668E+02  0.2912E+03
    -13.745  0.3659E+02  0.2917E+03
    -13.731  0.3652E+02  0.2923E+03
    -13.717  0.3648E+02  0.2928E+03
    -13.703  0.3647E+02  0.2933E+03
    -13.689  0.3648E+02  0.2938E+03
    -13.675  0.3651E+02  0.2943E+03
    -13.661  0.3656E+02  0.2948E+03
    -13.647  0.3662E+02  0.2953E+03
    -13.632  0.3670E+02  0.2959E+03
    -13.618  0.3678E+02  0.2964E+03
    -13.604  0.3687E+02  0.2969E+03
    -13.590  0.3695E+02  0.2974E+03
    -13.576  0.3703E+02  0.2979E+03
    -13.562  0.3711E+02  0.2985E+03
    -13.548  0.3718E+02  0.2990E+03
    -13.534  0.3724E+02  0.2995E+03
    -13.520  0.3729E+02  0.3000E+03
    -13.506  0.3733E+02  0.3005E+03
    -13.492  0.3737E+02  0.3011E+03
    -13.478  0.3741E+02  0.3016E+03
    -13.464  0.3745E+02  0.3021E+03
    -13.450  0.3750E+02  0.3027E+03
    -13.436  0.3756E+02  0.3032E+03
    -13.422  0.3763E+02  0.3037E+03
    -13.407  0.3772E+02  0.3042E+03
    -13.393  0.3784E+02  0.3048E+03
    -13.379  0.3798E+02  0.3053E+03
    -13.365  0.3814E+02  0.3058E+03
    -13.351  0.3833E+02  0.3064E+03
    -13.337  0.3854E+02  0.3069E+03
    -13.323  0.3878E+02  0.3075E+03
    -13.309  0.3903E+02  0.3080E+03
    -13.295  0.3930E+02  0.3086E+03
    -13.281  0.3958E+02  0.3091E+03
    -13.267  0.3987E+02  0.3097E+03
    -13.253  0.4015E+02  0.3103E+03
    -13.239  0.4042E+02  0.3108E+03
    -13.225  0.4068E+02  0.3114E+03
    -13.211  0.4091E+02  0.3120E+03
    -13.197  0.4112E+02  0.3125E+03
    -13.182  0.4130E+02  0.3131E+03
    -13.168  0.4144E+02  0.3137E+03
    -13.154  0.4154E+02  0.3143E+03
    -13.140  0.4161E+02  0.3149E+03
    -13.126  0.4163E+02  0.3155E+03
    -13.112  0.4161E+02  0.3161E+03
    -13.098  0.4155E+02  0.3166E+03
    -13.084  0.4146E+02  0.3172E+03
    -13.070  0.4133E+02  0.3178E+03
    -13.056  0.4118E+02  0.3184E+03
    -13.042  0.4101E+02  0.3190E+03
    -13.028  0.4082E+02  0.3195E+03
    -13.014  0.4062E+02  0.3201E+03
    -13.000  0.4042E+02  0.3207E+03
    -12.986  0.4021E+02  0.3212E+03
    -12.972  0.4001E+02  0.3218E+03
    -12.957  0.3982E+02  0.3224E+03
    -12.943  0.3964E+02  0.3229E+03