 115 115   0   0
  0.4857229E+02  0.2007788E-08  0.1391037E-08  0.2000000E-08  0.5000000E-15
  1.000000000000000E-004
  CAR 
 unknown system                          
      3.27780626    -24.49560039 2000     -3.61119312      1.00000000
    -24.496  0.0000E+00  0.0000E+00
    -24.482  0.0000E+00  0.0000E+00
    -24.468  0.0000E+00  0.0000E+00
    -24.454  0.0000E+00  0.0000E+00
    -24.440  0.0000E+00  0.0000E+00
    -24.426  0.0000E+00  0.0000E+00
    -24.412  0.0000E+00  0.0000E+00
    -24.398  0.0000E+00  0.0000E+00
    -24.384  0.0000E+00  0.0000E+00
    -24.371  0.0000E+00  0.0000E+00
    -24.357  0.0000E+00  0.0000E+00
    -24.343  0.0000E+00  0.0000E+00
    -24.329  0.0000E+00  0.0000E+00
    -24.315  0.0000E+00  0.0000E+00
    -24.301  0.0000E+00  0.0000E+00
    -24.287  0.0000E+00  0.0000E+00
    -24.273  0.0000E+00  0.0000E+00
    -24.259  0.0000E+00  0.0000E+00
    -24.246  0.0000E+00  0.0000E+00
    -24.232  0.0000E+00  0.0000E+00
    -24.218  0.0000E+00  0.0000E+00
    -24.204  0.0000E+00  0.0000E+00
    -24.190  0.0000E+00  0.0000E+00
    -24.176  0.0000E+00  0.0000E+00
    -24.162  0.0000E+00  0.0000E+00
    -24.148  0.0000E+00  0.0000E+00
    -24.134  0.0000E+00  0.0000E+00
    -24.120  0.0000E+00  0.0000E+00
    -24.107  0.0000E+00  0.0000E+00
    -24.093  0.0000E+00  0.0000E+00
    -24.079  0.0000E+00  0.0000E+00
    -24.065  0.0000E+00  0.0000E+00
    -24.051  0.0000E+00  0.0000E+00
    -24.037  0.0000E+00  0.0000E+00
    -24.023  0.0000E+00  0.0000E+00
    -24.009  0.0000E+00  0.0000E+00
    -23.995  0.0000E+00  0.0000E+00
    -23.982  0.0000E+00  0.0000E+00
    -23.968  0.0000E+00  0.0000E+00
    -23.954  0.0000E+00  0.0000E+00
    -23.940  0.0000E+00  0.0000E+00
    -23.926  0.0000E+00  0.0000E+00
    -23.912  0.0000E+00  0.0000E+00
    -23.898  0.0000E+00  0.0000E+00
    -23.884  0.0000E+00  0.0000E+00
    -23.870  0.0000E+00  0.0000E+00
    -23.856  0.0000E+00  0.0000E+00
    -23.843  0.0000E+00  0.0000E+00
    -23.829  0.0000E+00  0.0000E+00
    -23.815  0.0000E+00  0.0000E+00
    -23.801  0.0000E+00  0.0000E+00
    -23.787  0.0000E+00  0.0000E+00
    -23.773  0.0000E+00  0.0000E+00
    -23.759  0.0000E+00  0.0000E+00
    -23.745  0.0000E+00  0.0000E+00
    -23.731  0.0000E+00  0.0000E+00
    -23.718  0.0000E+00  0.0000E+00
    -23.704  0.0000E+00  0.0000E+00
    -23.690  0.0000E+00  0.0000E+00
    -23.676  0.2664E-14  0.3701E-16
    -23.662  0.0000E+00  0.3701E-16
    -23.648  0.5327E-14  0.1110E-15
    -23.634  0.1421E-13  0.3084E-15
    -23.620  0.2752E-13  0.6908E-15
    -23.606  0.5682E-13  0.1480E-14
    -23.593  0.1305E-12  0.3294E-14
    -23.579  0.2779E-12  0.7155E-14
    -23.565  0.5904E-12  0.1536E-13
    -23.551  0.1253E-11  0.3276E-13
    -23.537  0.2622E-11  0.6919E-13
    -23.523  0.5443E-11  0.1448E-12
    -23.509  0.1117E-10  0.3001E-12
    -23.495  0.2275E-10  0.6161E-12
    -23.481  0.4586E-10  0.1253E-11
    -23.467  0.9156E-10  0.2525E-11
    -23.454  0.1811E-09  0.5042E-11
    -23.440  0.3548E-09  0.9971E-11
    -23.426  0.6886E-09  0.1954E-10
    -23.412  0.1324E-08  0.3793E-10
    -23.398  0.2520E-08  0.7294E-10
    -23.384  0.4753E-08  0.1390E-09
    -23.370  0.8880E-08  0.2624E-09
    -23.356  0.1643E-07  0.4907E-09
    -23.342  0.3012E-07  0.9092E-09
    -23.329  0.5469E-07  0.1669E-08
    -23.315  0.9837E-07  0.3036E-08
    -23.301  0.1753E-06  0.5471E-08
    -23.287  0.3093E-06  0.9768E-08
    -23.273  0.5407E-06  0.1728E-07
    -23.259  0.9363E-06  0.3029E-07
    -23.245  0.1606E-05  0.5260E-07
    -23.231  0.2729E-05  0.9052E-07
    -23.217  0.4593E-05  0.1543E-06
    -23.203  0.7658E-05  0.2607E-06
    -23.190  0.1265E-04  0.4364E-06
    -23.176  0.2069E-04  0.7239E-06
    -23.162  0.3354E-04  0.1190E-05
    -23.148  0.5384E-04  0.1938E-05
    -23.134  0.8562E-04  0.3127E-05
    -23.120  0.1349E-03  0.5002E-05
    -23.106  0.2105E-03  0.7927E-05
    -23.092  0.3255E-03  0.1245E-04
    -23.078  0.4985E-03  0.1937E-04
    -23.065  0.7563E-03  0.2988E-04
    -23.051  0.1137E-02  0.4568E-04
    -23.037  0.1693E-02  0.6919E-04
    -23.023  0.2497E-02  0.1039E-03
    -23.009  0.3649E-02  0.1546E-03
    -22.995  0.5283E-02  0.2280E-03
    -22.981  0.7578E-02  0.3333E-03
    -22.967  0.1077E-01  0.4829E-03
    -22.953  0.1516E-01  0.6935E-03
    -22.940  0.2115E-01  0.9874E-03
    -22.926  0.2923E-01  0.1393E-02
    -22.912  0.4002E-01  0.1949E-02
    -22.898  0.5430E-01  0.2704E-02
    -22.884  0.7300E-01  0.3718E-02
    -22.870  0.9723E-01  0.5069E-02
    -22.856  0.1283E+00  0.6852E-02
    -22.842  0.1679E+00  0.9184E-02
    -22.828  0.2176E+00  0.1221E-01
    -22.814  0.2795E+00  0.1609E-01
    -22.801  0.3558E+00  0.2103E-01
    -22.787  0.4488E+00  0.2727E-01
    -22.773  0.5612E+00  0.3507E-01
    -22.759  0.6955E+00  0.4473E-01
    -22.745  0.8545E+00  0.5660E-01
    -22.731  0.1041E+01  0.7106E-01
    -22.717  0.1256E+01  0.8851E-01
    -22.703  0.1503E+01  0.1094E+00
    -22.689  0.1784E+01  0.1342E+00
    -22.676  0.2099E+01  0.1634E+00
    -22.662  0.2449E+01  0.1974E+00
    -22.648  0.2834E+01  0.2368E+00
    -22.634  0.3253E+01  0.2820E+00
    -22.620  0.3703E+01  0.3334E+00
    -22.606  0.4182E+01  0.3915E+00
    -22.592  0.4685E+01  0.4566E+00
    -22.578  0.5209E+01  0.5290E+00
    -22.564  0.5747E+01  0.6088E+00
    -22.550  0.6294E+01  0.6963E+00
    -22.537  0.6844E+01  0.7914E+00
    -22.523  0.7388E+01  0.8940E+00
    -22.509  0.7921E+01  0.1004E+01
    -22.495  0.8436E+01  0.1121E+01
    -22.481  0.8928E+01  0.1245E+01
    -22.467  0.9390E+01  0.1376E+01
    -22.453  0.9819E+01  0.1512E+01
    -22.439  0.1021E+02  0.1654E+01
    -22.425  0.1057E+02  0.1801E+01
    -22.412  0.1089E+02  0.1952E+01
    -22.398  0.1117E+02  0.2107E+01
    -22.384  0.1141E+02  0.2266E+01
    -22.370  0.1163E+02  0.2427E+01
    -22.356  0.1182E+02  0.2592E+01
    -22.342  0.1198E+02  0.2758E+01
    -22.328  0.1214E+02  0.2927E+01
    -22.314  0.1228E+02  0.3097E+01
    -22.300  0.1243E+02  0.3270E+01
    -22.287  0.1257E+02  0.3445E+01
    -22.273  0.1273E+02  0.3621E+01
    -22.259  0.1289E+02  0.3801E+01
    -22.245  0.1307E+02  0.3982E+01
    -22.231  0.1327E+02  0.4167E+01
    -22.217  0.1348E+02  0.4354E+01
    -22.203  0.1371E+02  0.4544E+01
    -22.189  0.1394E+02  0.4738E+01
    -22.175  0.1418E+02  0.4935E+01
    -22.161  0.1442E+02  0.5135E+01
    -22.148  0.1465E+02  0.5339E+01
    -22.134  0.1487E+02  0.5545E+01
    -22.120  0.1506E+02  0.5755E+01
    -22.106  0.1523E+02  0.5966E+01
    -22.092  0.1537E+02  0.6180E+01
    -22.078  0.1547E+02  0.6395E+01
    -22.064  0.1553E+02  0.6610E+01
    -22.050  0.1553E+02  0.6826E+01
    -22.036  0.1550E+02  0.7042E+01
    -22.023  0.1541E+02  0.7256E+01
    -22.009  0.1527E+02  0.7468E+01
    -21.995  0.1508E+02  0.7677E+01
    -21.981  0.1485E+02  0.7884E+01
    -21.967  0.1457E+02  0.8086E+01
    -21.953  0.1425E+02  0.8284E+01
    -21.939  0.1390E+02  0.8477E+01
    -21.925  0.1352E+02  0.8665E+01
    -21.911  0.1312E+02  0.8847E+01
    -21.897  0.1269E+02  0.9024E+01
    -21.884  0.1226E+02  0.9194E+01
    -21.870  0.1183E+02  0.9358E+01
    -21.856  0.1140E+02  0.9517E+01
    -21.842  0.1098E+02  0.9669E+01
    -21.828  0.1059E+02  0.9816E+01
    -21.814  0.1022E+02  0.9958E+01
    -21.800  0.9883E+01  0.1010E+02
    -21.786  0.9587E+01  0.1023E+02
    -21.772  0.9337E+01  0.1036E+02
    -21.759  0.9136E+01  0.1049E+02
    -21.745  0.8990E+01  0.1061E+02
    -21.731  0.8900E+01  0.1073E+02
    -21.717  0.8868E+01  0.1086E+02
    -21.703  0.8894E+01  0.1098E+02
    -21.689  0.8978E+01  0.1111E+02
    -21.675  0.9118E+01  0.1123E+02
    -21.661  0.9311E+01  0.1136E+02
    -21.647  0.9555E+01  0.1149E+02
    -21.634  0.9845E+01  0.1163E+02
    -21.620  0.1018E+02  0.1177E+02
    -21.606  0.1055E+02  0.1192E+02
    -21.592  0.1094E+02  0.1207E+02
    -21.578  0.1137E+02  0.1223E+02
    -21.564  0.1182E+02  0.1239E+02
    -21.550  0.1228E+02  0.1256E+02
    -21.536  0.1275E+02  0.1274E+02
    -21.522  0.1322E+02  0.1292E+02
    -21.508  0.1370E+02  0.1312E+02
    -21.495  0.1416E+02  0.1331E+02
    -21.481  0.1462E+02  0.1351E+02
    -21.467  0.1505E+02  0.1372E+02
    -21.453  0.1547E+02  0.1394E+02
    -21.439  0.1586E+02  0.1416E+02
    -21.425  0.1623E+02  0.1438E+02
    -21.411  0.1656E+02  0.1461E+02
    -21.397  0.1686E+02  0.1485E+02
    -21.383  0.1713E+02  0.1509E+02
    -21.370  0.1736E+02  0.1533E+02
    -21.356  0.1755E+02  0.1557E+02
    -21.342  0.1771E+02  0.1582E+02
    -21.328  0.1784E+02  0.1607E+02
    -21.314  0.1793E+02  0.1631E+02
    -21.300  0.1800E+02  0.1657E+02
    -21.286  0.1805E+02  0.1682E+02
    -21.272  0.1807E+02  0.1707E+02
    -21.258  0.1808E+02  0.1732E+02
    -21.244  0.1807E+02  0.1757E+02
    -21.231  0.1806E+02  0.1782E+02
    -21.217  0.1805E+02  0.1807E+02
    -21.203  0.1803E+02  0.1832E+02
    -21.189  0.1802E+02  0.1857E+02
    -21.175  0.1802E+02  0.1882E+02
    -21.161  0.1803E+02  0.1907E+02
    -21.147  0.1804E+02  0.1932E+02
    -21.133  0.1807E+02  0.1957E+02
    -21.119  0.1810E+02  0.1983E+02
    -21.106  0.1815E+02  0.2008E+02
    -21.092  0.1820E+02  0.2033E+02
    -21.078  0.1825E+02  0.2058E+02
    -21.064  0.1830E+02  0.2084E+02
    -21.050  0.1835E+02  0.2109E+02
    -21.036  0.1839E+02  0.2135E+02
    -21.022  0.1842E+02  0.2160E+02
    -21.008  0.1844E+02  0.2186E+02
    -20.994  0.1844E+02  0.2212E+02
    -20.981  0.1842E+02  0.2237E+02
    -20.967  0.1837E+02  0.2263E+02
    -20.953  0.1831E+02  0.2288E+02
    -20.939  0.1822E+02  0.2314E+02
    -20.925  0.1811E+02  0.2339E+02
    -20.911  0.1798E+02  0.2364E+02
    -20.897  0.1782E+02  0.2388E+02
    -20.883  0.1765E+02  0.2413E+02
    -20.869  0.1745E+02  0.2437E+02
    -20.855  0.1725E+02  0.2461E+02
    -20.842  0.1703E+02  0.2485E+02
    -20.828  0.1681E+02  0.2508E+02
    -20.814  0.1659E+02  0.2531E+02
    -20.800  0.1638E+02  0.2554E+02
    -20.786  0.1617E+02  0.2577E+02
    -20.772  0.1598E+02  0.2599E+02
    -20.758  0.1581E+02  0.2621E+02
    -20.744  0.1567E+02  0.2642E+02
    -20.730  0.1555E+02  0.2664E+02
    -20.717  0.1548E+02  0.2686E+02
    -20.703  0.1543E+02  0.2707E+02
    -20.689  0.1543E+02  0.2728E+02
    -20.675  0.1548E+02  0.2750E+02
    -20.661  0.1556E+02  0.2772E+02
    -20.647  0.1568E+02  0.2793E+02
    -20.633  0.1584E+02  0.2815E+02
    -20.619  0.1604E+02  0.2838E+02
    -20.605  0.1626E+02  0.2860E+02
    -20.591  0.1651E+02  0.2883E+02
    -20.578  0.1678E+02  0.2907E+02
    -20.564  0.1705E+02  0.2930E+02
    -20.550  0.1732E+02  0.2954E+02
    -20.536  0.1759E+02  0.2979E+02
    -20.522  0.1785E+02  0.3004E+02
    -20.508  0.1808E+02  0.3029E+02
    -20.494  0.1829E+02  0.3054E+02
    -20.480  0.1847E+02  0.3080E+02
    -20.466  0.1860E+02  0.3106E+02
    -20.453  0.1870E+02  0.3132E+02
    -20.439  0.1876E+02  0.3158E+02
    -20.425  0.1877E+02  0.3184E+02
    -20.411  0.1874E+02  0.3210E+02
    -20.397  0.1867E+02  0.3236E+02
    -20.383  0.1857E+02  0.3261E+02
    -20.369  0.1843E+02  0.3287E+02
    -20.355  0.1826E+02  0.3312E+02
    -20.341  0.1808E+02  0.3338E+02
    -20.328  0.1787E+02  0.3362E+02
    -20.314  0.1766E+02  0.3387E+02
    -20.300  0.1745E+02  0.3411E+02
    -20.286  0.1724E+02  0.3435E+02
    -20.272  0.1703E+02  0.3459E+02
    -20.258  0.1685E+02  0.3482E+02
    -20.244  0.1668E+02  0.3505E+02
    -20.230  0.1653E+02  0.3528E+02
    -20.216  0.1642E+02  0.3551E+02
    -20.202  0.1632E+02  0.3574E+02
    -20.189  0.1626E+02  0.3596E+02
    -20.175  0.1623E+02  0.3619E+02
    -20.161  0.1622E+02  0.3642E+02
    -20.147  0.1624E+02  0.3664E+02
    -20.133  0.1628E+02  0.3687E+02
    -20.119  0.1635E+02  0.3709E+02
    -20.105  0.1643E+02  0.3732E+02
    -20.091  0.1652E+02  0.3755E+02
    -20.077  0.1662E+02  0.3778E+02
    -20.064  0.1673E+02  0.3802E+02
    -20.050  0.1684E+02  0.3825E+02
    -20.036  0.1694E+02  0.3848E+02
    -20.022  0.1704E+02  0.3872E+02
    -20.008  0.1712E+02  0.3896E+02
    -19.994  0.1720E+02  0.3920E+02
    -19.980  0.1726E+02  0.3944E+02
    -19.966  0.1730E+02  0.3968E+02
    -19.952  0.1732E+02  0.3992E+02
    -19.938  0.1732E+02  0.4016E+02
    -19.925  0.1731E+02  0.4040E+02
    -19.911  0.1727E+02  0.4064E+02
    -19.897  0.1722E+02  0.4088E+02
    -19.883  0.1715E+02  0.4112E+02
    -19.869  0.1706E+02  0.4135E+02
    -19.855  0.1695E+02  0.4159E+02
    -19.841  0.1684E+02  0.4182E+02
    -19.827  0.1671E+02  0.4206E+02
    -19.813  0.1657E+02  0.4229E+02
    -19.800  0.1643E+02  0.4251E+02
    -19.786  0.1628E+02  0.4274E+02
    -19.772  0.1614E+02  0.4297E+02
    -19.758  0.1599E+02  0.4319E+02
    -19.744  0.1585E+02  0.4341E+02
    -19.730  0.1571E+02  0.4363E+02
    -19.716  0.1558E+02  0.4384E+02
    -19.702  0.1546E+02  0.4406E+02
    -19.688  0.1535E+02  0.4427E+02
    -19.675  0.1526E+02  0.4448E+02
    -19.661  0.1518E+02  0.4469E+02
    -19.647  0.1511E+02  0.4490E+02
    -19.633  0.1506E+02  0.4511E+02
    -19.619  0.1503E+02  0.4532E+02
    -19.605  0.1501E+02  0.4553E+02
    -19.591  0.1500E+02  0.4574E+02
    -19.577  0.1501E+02  0.4595E+02
    -19.563  0.1503E+02  0.4616E+02
    -19.549  0.1506E+02  0.4636E+02
    -19.536  0.1511E+02  0.4657E+02
    -19.522  0.1517E+02  0.4679E+02
    -19.508  0.1524E+02  0.4700E+02
    -19.494  0.1532E+02  0.4721E+02
    -19.480  0.1542E+02  0.4742E+02
    -19.466  0.1552E+02  0.4764E+02
    -19.452  0.1564E+02  0.4786E+02
    -19.438  0.1577E+02  0.4808E+02
    -19.424  0.1591E+02  0.4830E+02
    -19.411  0.1606E+02  0.4852E+02
    -19.397  0.1622E+02  0.4875E+02
    -19.383  0.1638E+02  0.4897E+02
    -19.369  0.1655E+02  0.4920E+02
    -19.355  0.1671E+02  0.4944E+02
    -19.341  0.1688E+02  0.4967E+02
    -19.327  0.1703E+02  0.4991E+02
    -19.313  0.1718E+02  0.5015E+02
    -19.299  0.1731E+02  0.5039E+02
    -19.285  0.1742E+02  0.5063E+02
    -19.272  0.1751E+02  0.5087E+02
    -19.258  0.1758E+02  0.5112E+02
    -19.244  0.1762E+02  0.5136E+02
    -19.230  0.1764E+02  0.5161E+02
    -19.216  0.1763E+02  0.5185E+02
    -19.202  0.1759E+02  0.5209E+02
    -19.188  0.1753E+02  0.5234E+02
    -19.174  0.1745E+02  0.5258E+02
    -19.160  0.1736E+02  0.5282E+02
    -19.147  0.1725E+02  0.5306E+02
    -19.133  0.1714E+02  0.5330E+02
    -19.119  0.1702E+02  0.5354E+02
    -19.105  0.1691E+02  0.5377E+02
    -19.091  0.1680E+02  0.5400E+02
    -19.077  0.1671E+02  0.5424E+02
    -19.063  0.1663E+02  0.5447E+02
    -19.049  0.1657E+02  0.5470E+02
    -19.035  0.1653E+02  0.5493E+02
    -19.022  0.1652E+02  0.5516E+02
    -19.008  0.1652E+02  0.5539E+02
    -18.994  0.1655E+02  0.5562E+02
    -18.980  0.1661E+02  0.5585E+02
    -18.966  0.1668E+02  0.5608E+02
    -18.952  0.1677E+02  0.5631E+02
    -18.938  0.1688E+02  0.5655E+02
    -18.924  0.1701E+02  0.5678E+02
    -18.910  0.1715E+02  0.5702E+02
    -18.896  0.1730E+02  0.5726E+02
    -18.883  0.1746E+02  0.5750E+02
    -18.869  0.1763E+02  0.5775E+02
    -18.855  0.1780E+02  0.5800E+02
    -18.841  0.1798E+02  0.5825E+02
    -18.827  0.1816E+02  0.5850E+02
    -18.813  0.1835E+02  0.5875E+02
    -18.799  0.1854E+02  0.5901E+02
    -18.785  0.1873E+02  0.5927E+02
    -18.771  0.1892E+02  0.5953E+02
    -18.758  0.1912E+02  0.5980E+02
    -18.744  0.1930E+02  0.6007E+02
    -18.730  0.1949E+02  0.6034E+02
    -18.716  0.1966E+02  0.6061E+02
    -18.702  0.1983E+02  0.6089E+02
    -18.688  0.1998E+02  0.6116E+02
    -18.674  0.2011E+02  0.6144E+02
    -18.660  0.2021E+02  0.6172E+02
    -18.646  0.2030E+02  0.6201E+02
    -18.632  0.2035E+02  0.6229E+02
    -18.619  0.2037E+02  0.6257E+02
    -18.605  0.2036E+02  0.6286E+02
    -18.591  0.2031E+02  0.6314E+02
    -18.577  0.2023E+02  0.6342E+02
    -18.563  0.2012E+02  0.6370E+02
    -18.549  0.1998E+02  0.6398E+02
    -18.535  0.1982E+02  0.6425E+02
    -18.521  0.1963E+02  0.6452E+02
    -18.507  0.1943E+02  0.6479E+02
    -18.494  0.1922E+02  0.6506E+02
    -18.480  0.1900E+02  0.6533E+02
    -18.466  0.1879E+02  0.6559E+02
    -18.452  0.1859E+02  0.6584E+02
    -18.438  0.1841E+02  0.6610E+02
    -18.424  0.1824E+02  0.6635E+02
    -18.410  0.1810E+02  0.6661E+02
    -18.396  0.1799E+02  0.6686E+02
    -18.382  0.1790E+02  0.6710E+02
    -18.369  0.1785E+02  0.6735E+02
    -18.355  0.1783E+02  0.6760E+02
    -18.341  0.1783E+02  0.6785E+02
    -18.327  0.1786E+02  0.6810E+02
    -18.313  0.1792E+02  0.6834E+02
    -18.299  0.1799E+02  0.6859E+02
    -18.285  0.1807E+02  0.6885E+02
    -18.271  0.1817E+02  0.6910E+02
    -18.257  0.1827E+02  0.6935E+02
    -18.243  0.1836E+02  0.6961E+02
    -18.230  0.1845E+02  0.6986E+02
    -18.216  0.1853E+02  0.7012E+02
    -18.202  0.1859E+02  0.7038E+02
    -18.188  0.1864E+02  0.7064E+02
    -18.174  0.1866E+02  0.7090E+02
    -18.160  0.1866E+02  0.7116E+02
    -18.146  0.1864E+02  0.7142E+02
    -18.132  0.1861E+02  0.7167E+02
    -18.118  0.1855E+02  0.7193E+02
    -18.105  0.1848E+02  0.7219E+02
    -18.091  0.1841E+02  0.7244E+02
    -18.077  0.1832E+02  0.7270E+02
    -18.063  0.1824E+02  0.7295E+02
    -18.049  0.1817E+02  0.7320E+02
    -18.035  0.1810E+02  0.7346E+02
    -18.021  0.1806E+02  0.7371E+02
    -18.007  0.1803E+02  0.7396E+02
    -17.993  0.1803E+02  0.7421E+02
    -17.979  0.1806E+02  0.7446E+02
    -17.966  0.1812E+02  0.7471E+02
    -17.952  0.1820E+02  0.7496E+02
    -17.938  0.1831E+02  0.7522E+02
    -17.924  0.1845E+02  0.7547E+02
    -17.910  0.1861E+02  0.7573E+02
    -17.896  0.1878E+02  0.7599E+02
    -17.882  0.1897E+02  0.7626E+02
    -17.868  0.1917E+02  0.7652E+02
    -17.854  0.1937E+02  0.7679E+02
    -17.841  0.1957E+02  0.7706E+02
    -17.827  0.1975E+02  0.7734E+02
    -17.813  0.1992E+02  0.7762E+02
    -17.799  0.2007E+02  0.7789E+02
    -17.785  0.2019E+02  0.7818E+02
    -17.771  0.2029E+02  0.7846E+02
    -17.757  0.2035E+02  0.7874E+02
    -17.743  0.2038E+02  0.7902E+02
    -17.729  0.2037E+02  0.7931E+02
    -17.715  0.2033E+02  0.7959E+02
    -17.702  0.2025E+02  0.7987E+02
    -17.688  0.2014E+02  0.8015E+02
    -17.674  0.2000E+02  0.8043E+02
    -17.660  0.1983E+02  0.8070E+02
    -17.646  0.1963E+02  0.8098E+02
    -17.632  0.1942E+02  0.8125E+02
    -17.618  0.1920E+02  0.8151E+02
    -17.604  0.1897E+02  0.8178E+02
    -17.590  0.1874E+02  0.8204E+02
    -17.577  0.1852E+02  0.8229E+02
    -17.563  0.1831E+02  0.8255E+02
    -17.549  0.1813E+02  0.8280E+02
    -17.535  0.1797E+02  0.8305E+02
    -17.521  0.1785E+02  0.8330E+02
    -17.507  0.1776E+02  0.8354E+02
    -17.493  0.1771E+02  0.8379E+02
    -17.479  0.1771E+02  0.8404E+02
    -17.465  0.1775E+02  0.8428E+02
    -17.452  0.1783E+02  0.8453E+02
    -17.438  0.1795E+02  0.8478E+02
    -17.424  0.1811E+02  0.8503E+02
    -17.410  0.1830E+02  0.8529E+02
    -17.396  0.1852E+02  0.8554E+02
    -17.382  0.1875E+02  0.8580E+02
    -17.368  0.1898E+02  0.8607E+02
    -17.354  0.1922E+02  0.8633E+02
    -17.340  0.1945E+02  0.8660E+02
    -17.326  0.1966E+02  0.8688E+02
    -17.313  0.1984E+02  0.8715E+02
    -17.299  0.1999E+02  0.8743E+02
    -17.285  0.2010E+02  0.8771E+02
    -17.271  0.2017E+02  0.8799E+02
    -17.257  0.2019E+02  0.8827E+02
    -17.243  0.2017E+02  0.8855E+02
    -17.229  0.2010E+02  0.8883E+02
    -17.215  0.2000E+02  0.8911E+02
    -17.201  0.1986E+02  0.8938E+02
    -17.188  0.1969E+02  0.8966E+02
    -17.174  0.1950E+02  0.8993E+02
    -17.160  0.1929E+02  0.9020E+02
    -17.146  0.1907E+02  0.9046E+02
    -17.132  0.1886E+02  0.9072E+02
    -17.118  0.1864E+02  0.9098E+02
    -17.104  0.1845E+02  0.9124E+02
    -17.090  0.1826E+02  0.9149E+02
    -17.076  0.1810E+02  0.9174E+02
    -17.062  0.1797E+02  0.9199E+02
    -17.049  0.1786E+02  0.9224E+02
    -17.035  0.1778E+02  0.9249E+02
    -17.021  0.1772E+02  0.9274E+02
    -17.007  0.1769E+02  0.9298E+02
    -16.993  0.1768E+02  0.9323E+02
    -16.979  0.1768E+02  0.9347E+02
    -16.965  0.1770E+02  0.9372E+02
    -16.951  0.1773E+02  0.9397E+02
    -16.937  0.1776E+02  0.9421E+02
    -16.924  0.1779E+02  0.9446E+02
    -16.910  0.1782E+02  0.9471E+02
    -16.896  0.1783E+02  0.9495E+02
    -16.882  0.1784E+02  0.9520E+02
    -16.868  0.1783E+02  0.9545E+02
    -16.854  0.1780E+02  0.9570E+02
    -16.840  0.1775E+02  0.9594E+02
    -16.826  0.1769E+02  0.9619E+02
    -16.812  0.1761E+02  0.9643E+02
    -16.799  0.1751E+02  0.9668E+02
    -16.785  0.1740E+02  0.9692E+02
    -16.771  0.1729E+02  0.9716E+02
    -16.757  0.1717E+02  0.9740E+02
    -16.743  0.1704E+02  0.9763E+02
    -16.729  0.1692E+02  0.9787E+02
    -16.715  0.1681E+02  0.9810E+02
    -16.701  0.1671E+02  0.9834E+02
    -16.687  0.1662E+02  0.9857E+02
    -16.673  0.1655E+02  0.9880E+02
    -16.660  0.1650E+02  0.9903E+02
    -16.646  0.1647E+02  0.9925E+02
    -16.632  0.1646E+02  0.9948E+02
    -16.618  0.1647E+02  0.9971E+02
    -16.604  0.1651E+02  0.9994E+02
    -16.590  0.1656E+02  0.1002E+03
    -16.576  0.1663E+02  0.1004E+03
    -16.562  0.1672E+02  0.1006E+03
    -16.548  0.1682E+02  0.1009E+03
    -16.535  0.1692E+02  0.1011E+03
    -16.521  0.1704E+02  0.1013E+03
    -16.507  0.1717E+02  0.1016E+03
    -16.493  0.1730E+02  0.1018E+03
    -16.479  0.1743E+02  0.1021E+03
    -16.465  0.1756E+02  0.1023E+03
    -16.451  0.1770E+02  0.1026E+03
    -16.437  0.1783E+02  0.1028E+03
    -16.423  0.1797E+02  0.1030E+03
    -16.409  0.1810E+02  0.1033E+03
    -16.396  0.1823E+02  0.1036E+03
    -16.382  0.1835E+02  0.1038E+03
    -16.368  0.1847E+02  0.1041E+03
    -16.354  0.1857E+02  0.1043E+03
    -16.340  0.1867E+02  0.1046E+03
    -16.326  0.1875E+02  0.1048E+03
    -16.312  0.1882E+02  0.1051E+03
    -16.298  0.1886E+02  0.1054E+03
    -16.284  0.1889E+02  0.1056E+03
    -16.271  0.1890E+02  0.1059E+03
    -16.257  0.1888E+02  0.1062E+03
    -16.243  0.1884E+02  0.1064E+03
    -16.229  0.1878E+02  0.1067E+03
    -16.215  0.1869E+02  0.1069E+03
    -16.201  0.1859E+02  0.1072E+03
    -16.187  0.1846E+02  0.1075E+03
    -16.173  0.1832E+02  0.1077E+03
    -16.159  0.1817E+02  0.1080E+03
    -16.146  0.1801E+02  0.1082E+03
    -16.132  0.1784E+02  0.1085E+03
    -16.118  0.1768E+02  0.1087E+03
    -16.104  0.1752E+02  0.1089E+03
    -16.090  0.1737E+02  0.1092E+03
    -16.076  0.1723E+02  0.1094E+03
    -16.062  0.1711E+02  0.1097E+03
    -16.048  0.1702E+02  0.1099E+03
    -16.034  0.1694E+02  0.1101E+03
    -16.020  0.1689E+02  0.1104E+03
    -16.007  0.1687E+02  0.1106E+03
    -15.993  0.1687E+02  0.1108E+03
    -15.979  0.1689E+02  0.1111E+03
    -15.965  0.1695E+02  0.1113E+03
    -15.951  0.1702E+02  0.1115E+03
    -15.937  0.1711E+02  0.1118E+03
    -15.923  0.1722E+02  0.1120E+03
    -15.909  0.1735E+02  0.1123E+03
    -15.895  0.1749E+02  0.1125E+03
    -15.882  0.1764E+02  0.1128E+03
    -15.868  0.1780E+02  0.1130E+03
    -15.854  0.1797E+02  0.1132E+03
    -15.840  0.1814E+02  0.1135E+03
    -15.826  0.1832E+02  0.1138E+03
    -15.812  0.1850E+02  0.1140E+03
    -15.798  0.1868E+02  0.1143E+03
    -15.784  0.1887E+02  0.1145E+03
    -15.770  0.1905E+02  0.1148E+03
    -15.756  0.1923E+02  0.1151E+03
    -15.743  0.1941E+02  0.1153E+03
    -15.729  0.1959E+02  0.1156E+03
    -15.715  0.1976E+02  0.1159E+03
    -15.701  0.1992E+02  0.1162E+03
    -15.687  0.2007E+02  0.1164E+03
    -15.673  0.2021E+02  0.1167E+03
    -15.659  0.2033E+02  0.1170E+03
    -15.645  0.2043E+02  0.1173E+03
    -15.631  0.2050E+02  0.1176E+03
    -15.618  0.2056E+02  0.1179E+03
    -15.604  0.2058E+02  0.1181E+03
    -15.590  0.2058E+02  0.1184E+03
    -15.576  0.2054E+02  0.1187E+03
    -15.562  0.2048E+02  0.1190E+03
    -15.548  0.2038E+02  0.1193E+03
    -15.534  0.2025E+02  0.1196E+03
    -15.520  0.2010E+02  0.1198E+03
    -15.506  0.1991E+02  0.1201E+03
    -15.493  0.1970E+02  0.1204E+03
    -15.479  0.1947E+02  0.1207E+03
    -15.465  0.1923E+02  0.1209E+03
    -15.451  0.1896E+02  0.1212E+03
    -15.437  0.1868E+02  0.1215E+03
    -15.423  0.1840E+02  0.1217E+03
    -15.409  0.1811E+02  0.1220E+03
    -15.395  0.1783E+02  0.1222E+03
    -15.381  0.1754E+02  0.1225E+03
    -15.367  0.1727E+02  0.1227E+03
    -15.354  0.1701E+02  0.1229E+03
    -15.340  0.1676E+02  0.1232E+03
    -15.326  0.1653E+02  0.1234E+03
    -15.312  0.1633E+02  0.1236E+03
    -15.298  0.1614E+02  0.1238E+03
    -15.284  0.1599E+02  0.1241E+03
    -15.270  0.1586E+02  0.1243E+03
    -15.256  0.1575E+02  0.1245E+03
    -15.242  0.1568E+02  0.1247E+03
    -15.229  0.1563E+02  0.1249E+03
    -15.215  0.1560E+02  0.1252E+03
    -15.201  0.1561E+02  0.1254E+03
    -15.187  0.1563E+02  0.1256E+03
    -15.173  0.1568E+02  0.1258E+03
    -15.159  0.1574E+02  0.1260E+03
    -15.145  0.1582E+02  0.1262E+03
    -15.131  0.1592E+02  0.1265E+03
    -15.117  0.1603E+02  0.1267E+03
    -15.103  0.1616E+02  0.1269E+03
    -15.090  0.1630E+02  0.1271E+03
    -15.076  0.1645E+02  0.1274E+03
    -15.062  0.1661E+02  0.1276E+03
    -15.048  0.1678E+02  0.1278E+03
    -15.034  0.1696E+02  0.1281E+03
    -15.020  0.1716E+02  0.1283E+03
    -15.006  0.1737E+02  0.1285E+03
    -14.992  0.1759E+02  0.1288E+03
    -14.978  0.1782E+02  0.1290E+03
    -14.965  0.1807E+02  0.1293E+03
    -14.951  0.1832E+02  0.1295E+03
    -14.937  0.1858E+02  0.1298E+03
    -14.923  0.1884E+02  0.1301E+03
    -14.909  0.1910E+02  0.1303E+03
    -14.895  0.1935E+02  0.1306E+03
    -14.881  0.1960E+02  0.1309E+03
    -14.867  0.1983E+02  0.1311E+03
    -14.853  0.2005E+02  0.1314E+03
    -14.840  0.2024E+02  0.1317E+03
    -14.826  0.2041E+02  0.1320E+03
    -14.812  0.2054E+02  0.1323E+03
    -14.798  0.2064E+02  0.1326E+03
    -14.784  0.2071E+02  0.1328E+03
    -14.770  0.2074E+02  0.1331E+03
    -14.756  0.2074E+02  0.1334E+03
    -14.742  0.2070E+02  0.1337E+03
    -14.728  0.2063E+02  0.1340E+03
    -14.714  0.2053E+02  0.1343E+03
    -14.701  0.2040E+02  0.1346E+03
    -14.687  0.2026E+02  0.1348E+03
    -14.673  0.2009E+02  0.1351E+03
    -14.659  0.1991E+02  0.1354E+03
    -14.645  0.1973E+02  0.1357E+03
    -14.631  0.1954E+02  0.1360E+03
    -14.617  0.1935E+02  0.1362E+03
    -14.603  0.1917E+02  0.1365E+03
    -14.589  0.1900E+02  0.1368E+03
    -14.576  0.1884E+02  0.1370E+03
    -14.562  0.1869E+02  0.1373E+03
    -14.548  0.1856E+02  0.1375E+03
    -14.534  0.1845E+02  0.1378E+03
    -14.520  0.1836E+02  0.1380E+03
    -14.506  0.1829E+02  0.1383E+03
    -14.492  0.1824E+02  0.1385E+03
    -14.478  0.1820E+02  0.1388E+03
    -14.464  0.1819E+02  0.1391E+03
    -14.450  0.1820E+02  0.1393E+03
    -14.437  0.1822E+02  0.1396E+03
    -14.423  0.1825E+02  0.1398E+03
    -14.409  0.1830E+02  0.1401E+03
    -14.395  0.1835E+02  0.1403E+03
    -14.381  0.1841E+02  0.1406E+03
    -14.367  0.1848E+02  0.1408E+03
    -14.353  0.1854E+02  0.1411E+03
    -14.339  0.1861E+02  0.1414E+03
    -14.325  0.1867E+02  0.1416E+03
    -14.312  0.1872E+02  0.1419E+03
    -14.298  0.1877E+02  0.1421E+03
    -14.284  0.1881E+02  0.1424E+03
    -14.270  0.1885E+02  0.1427E+03
    -14.256  0.1887E+02  0.1429E+03
    -14.242  0.1889E+02  0.1432E+03
    -14.228  0.1890E+02  0.1434E+03
    -14.214  0.1890E+02  0.1437E+03
    -14.200  0.1890E+02  0.1440E+03
    -14.187  0.1890E+02  0.1442E+03
    -14.173  0.1889E+02  0.1445E+03
    -14.159  0.1888E+02  0.1448E+03
    -14.145  0.1887E+02  0.1450E+03
    -14.131  0.1886E+02  0.1453E+03
    -14.117  0.1885E+02  0.1455E+03
    -14.103  0.1884E+02  0.1458E+03
    -14.089  0.1883E+02  0.1461E+03
    -14.075  0.1882E+02  0.1463E+03
    -14.061  0.1880E+02  0.1466E+03
    -14.048  0.1878E+02  0.1468E+03
    -14.034  0.1876E+02  0.1471E+03
    -14.020  0.1874E+02  0.1474E+03
    -14.006  0.1871E+02  0.1476E+03
    -13.992  0.1868E+02  0.1479E+03
    -13.978  0.1866E+02  0.1481E+03
    -13.964  0.1863E+02  0.1484E+03
    -13.950  0.1860E+02  0.1487E+03
    -13.936  0.1858E+02  0.1489E+03
    -13.923  0.1856E+02  0.1492E+03
    -13.909  0.1855E+02  0.1494E+03
    -13.895  0.1855E+02  0.1497E+03
    -13.881  0.1856E+02  0.1500E+03
    -13.867  0.1857E+02  0.1502E+03
    -13.853  0.1860E+02  0.1505E+03
    -13.839  0.1864E+02  0.1507E+03
    -13.825  0.1868E+02  0.1510E+03
    -13.811  0.1873E+02  0.1512E+03
    -13.797  0.1879E+02  0.1515E+03
    -13.784  0.1885E+02  0.1518E+03
    -13.770  0.1890E+02  0.1520E+03
    -13.756  0.1896E+02  0.1523E+03
    -13.742  0.1902E+02  0.1526E+03
    -13.728  0.1906E+02  0.1528E+03
    -13.714  0.1911E+02  0.1531E+03
    -13.700  0.1914E+02  0.1534E+03
    -13.686  0.1917E+02  0.1536E+03
    -13.672  0.1919E+02  0.1539E+03
    -13.659  0.1921E+02  0.1542E+03
    -13.645  0.1923E+02  0.1544E+03
    -13.631  0.1925E+02  0.1547E+03
    -13.617  0.1928E+02  0.1550E+03
    -13.603  0.1931E+02  0.1552E+03
    -13.589  0.1935E+02  0.1555E+03
    -13.575  0.1941E+02  0.1558E+03
    -13.561  0.1948E+02  0.1560E+03
    -13.547  0.1957E+02  0.1563E+03
    -13.534  0.1968E+02  0.1566E+03
    -13.520  0.1981E+02  0.1569E+03
    -13.506  0.1996E+02  0.1571E+03
    -13.492  0.2012E+02  0.1574E+03
    -13.478  0.2030E+02  0.1577E+03
    -13.464  0.2049E+02  0.1580E+03
    -13.450  0.2069E+02  0.1583E+03
    -13.436  0.2089E+02  0.1586E+03
    -13.422  0.2109E+02  0.1589E+03
    -13.408  0.2128E+02  0.1591E+03
    -13.395  0.2146E+02  0.1594E+03
    -13.381  0.2163E+02  0.1597E+03
    -13.367  0.2179E+02  0.1601E+03
    -13.353  0.2192E+02  0.1604E+03
    -13.339  0.2203E+02  0.1607E+03
    -13.325  0.2211E+02  0.1610E+03
    -13.311  0.2217E+02  0.1613E+03
    -13.297  0.2220E+02  0.1616E+03
    -13.283  0.2221E+02  0.1619E+03
    -13.270  0.2219E+02  0.1622E+03
    -13.256  0.2215E+02  0.1625E+03
    -13.242  0.2209E+02  0.1628E+03
    -13.228  0.2201E+02  0.1631E+03
    -13.214  0.2191E+02  0.1634E+03
    -13.200  0.2179E+02  0.1637E+03
    -13.186  0.2166E+02  0.1640E+03
    -13.172  0.2152E+02  0.1643E+03
    -13.158  0.2137E+02  0.1646E+03
    -13.144  0.2122E+02  0.1649E+03
    -13.131  0.2107E+02  0.1652E+03
    -13.117  0.2092E+02  0.1655E+03
    -13.103  0.2077E+02  0.1658E+03
    -13.089  0.2063E+02  0.1661E+03
    -13.075  0.2051E+02  0.1664E+03
    -13.061  0.2040E+02  0.1666E+03
    -13.047  0.2031E+02  0.1669E+03
    -13.033  0.2024E+02  0.1672E+03