  93  93   0   0
  0.2703877E+02  0.1704000E-08  0.1475707E-08  0.1000000E-08  0.5000000E-15
  1.000000000000000E-004
  CAR 
 unknown system                          
      5.89142394    -24.49245601 2000     -1.44533827      1.00000000
    -24.492  0.0000E+00  0.0000E+00
    -24.477  0.0000E+00  0.0000E+00
    -24.462  0.0000E+00  0.0000E+00
    -24.447  0.0000E+00  0.0000E+00
    -24.432  0.0000E+00  0.0000E+00
    -24.416  0.0000E+00  0.0000E+00
    -24.401  0.0000E+00  0.0000E+00
    -24.386  0.0000E+00  0.0000E+00
    -24.371  0.0000E+00  0.0000E+00
    -24.356  0.0000E+00  0.0000E+00
    -24.340  0.0000E+00  0.0000E+00
    -24.325  0.0000E+00  0.0000E+00
    -24.310  0.0000E+00  0.0000E+00
    -24.295  0.0000E+00  0.0000E+00
    -24.280  0.0000E+00  0.0000E+00
    -24.264  0.0000E+00  0.0000E+00
    -24.249  0.0000E+00  0.0000E+00
    -24.234  0.0000E+00  0.0000E+00
    -24.219  0.0000E+00  0.0000E+00
    -24.204  0.0000E+00  0.0000E+00
    -24.188  0.0000E+00  0.0000E+00
    -24.173  0.0000E+00  0.0000E+00
    -24.158  0.0000E+00  0.0000E+00
    -24.143  0.0000E+00  0.0000E+00
    -24.128  0.0000E+00  0.0000E+00
    -24.112  0.0000E+00  0.0000E+00
    -24.097  0.0000E+00  0.0000E+00
    -24.082  0.0000E+00  0.0000E+00
    -24.067  0.0000E+00  0.0000E+00
    -24.052  0.0000E+00  0.0000E+00
    -24.036  0.0000E+00  0.0000E+00
    -24.021  0.0000E+00  0.0000E+00
    -24.006  0.0000E+00  0.0000E+00
    -23.991  0.0000E+00  0.0000E+00
    -23.976  0.0000E+00  0.0000E+00
    -23.960  0.0000E+00  0.0000E+00
    -23.945  0.0000E+00  0.0000E+00
    -23.930  0.0000E+00  0.0000E+00
    -23.915  0.0000E+00  0.0000E+00
    -23.900  0.0000E+00  0.0000E+00
    -23.884  0.0000E+00  0.0000E+00
    -23.869  0.0000E+00  0.0000E+00
    -23.854  0.0000E+00  0.0000E+00
    -23.839  0.0000E+00  0.0000E+00
    -23.824  0.0000E+00  0.0000E+00
    -23.808  0.0000E+00  0.0000E+00
    -23.793  0.0000E+00  0.0000E+00
    -23.778  0.0000E+00  0.0000E+00
    -23.763  0.0000E+00  0.0000E+00
    -23.748  0.0000E+00  0.0000E+00
    -23.732  0.0000E+00  0.0000E+00
    -23.717  0.0000E+00  0.0000E+00
    -23.702  0.0000E+00  0.0000E+00
    -23.687  0.0000E+00  0.0000E+00
    -23.672  0.7304E-14  0.1110E-15
    -23.656  0.7304E-14  0.2220E-15
    -23.641  0.1461E-13  0.4441E-15
    -23.626  0.4383E-13  0.1110E-14
    -23.611  0.9496E-13  0.2554E-14
    -23.596  0.2337E-12  0.6106E-14
    -23.580  0.5308E-12  0.1417E-13
    -23.565  0.1219E-11  0.3270E-13
    -23.550  0.2753E-11  0.7455E-13
    -23.535  0.6141E-11  0.1679E-12
    -23.520  0.1356E-10  0.3739E-12
    -23.504  0.2957E-10  0.8234E-12
    -23.489  0.6377E-10  0.1793E-11
    -23.474  0.1360E-09  0.3859E-11
    -23.459  0.2865E-09  0.8214E-11
    -23.444  0.5968E-09  0.1728E-10
    -23.428  0.1229E-08  0.3596E-10
    -23.413  0.2502E-08  0.7399E-10
    -23.398  0.5034E-08  0.1505E-09
    -23.383  0.1001E-07  0.3027E-09
    -23.368  0.1969E-07  0.6020E-09
    -23.352  0.3827E-07  0.1184E-08
    -23.337  0.7354E-07  0.2302E-08
    -23.322  0.1397E-06  0.4425E-08
    -23.307  0.2623E-06  0.8411E-08
    -23.292  0.4868E-06  0.1581E-07
    -23.276  0.8932E-06  0.2939E-07
    -23.261  0.1620E-05  0.5401E-07
    -23.246  0.2905E-05  0.9816E-07
    -23.231  0.5148E-05  0.1764E-06
    -23.216  0.9020E-05  0.3135E-06
    -23.200  0.1562E-04  0.5510E-06
    -23.185  0.2675E-04  0.9575E-06
    -23.170  0.4526E-04  0.1645E-05
    -23.155  0.7573E-04  0.2796E-05
    -23.140  0.1252E-03  0.4700E-05
    -23.124  0.2047E-03  0.7812E-05
    -23.109  0.3309E-03  0.1284E-04
    -23.094  0.5286E-03  0.2087E-04
    -23.079  0.8347E-03  0.3356E-04
    -23.064  0.1303E-02  0.5337E-04
    -23.048  0.2011E-02  0.8393E-04
    -23.033  0.3067E-02  0.1306E-03
    -23.018  0.4625E-02  0.2009E-03
    -23.003  0.6895E-02  0.3057E-03
    -22.988  0.1016E-01  0.4601E-03
    -22.973  0.1480E-01  0.6850E-03
    -22.957  0.2131E-01  0.1009E-02
    -22.942  0.3033E-01  0.1470E-02
    -22.927  0.4268E-01  0.2119E-02
    -22.912  0.5936E-01  0.3021E-02
    -22.897  0.8162E-01  0.4262E-02
    -22.881  0.1109E+00  0.5948E-02
    -22.866  0.1491E+00  0.8213E-02
    -22.851  0.1980E+00  0.1122E-01
    -22.836  0.2599E+00  0.1517E-01
    -22.821  0.3374E+00  0.2030E-01
    -22.805  0.4328E+00  0.2688E-01
    -22.790  0.5489E+00  0.3522E-01
    -22.775  0.6882E+00  0.4568E-01
    -22.760  0.8529E+00  0.5865E-01
    -22.745  0.1045E+01  0.7453E-01
    -22.729  0.1265E+01  0.9376E-01
    -22.714  0.1515E+01  0.1168E+00
    -22.699  0.1793E+01  0.1440E+00
    -22.684  0.2097E+01  0.1759E+00
    -22.669  0.2425E+01  0.2128E+00
    -22.653  0.2772E+01  0.2549E+00
    -22.638  0.3133E+01  0.3025E+00
    -22.623  0.3500E+01  0.3557E+00
    -22.608  0.3864E+01  0.4145E+00
    -22.593  0.4218E+01  0.4786E+00
    -22.577  0.4552E+01  0.5478E+00
    -22.562  0.4855E+01  0.6216E+00
    -22.547  0.5120E+01  0.6994E+00
    -22.532  0.5336E+01  0.7805E+00
    -22.517  0.5498E+01  0.8641E+00
    -22.501  0.5600E+01  0.9492E+00
    -22.486  0.5639E+01  0.1035E+01
    -22.471  0.5612E+01  0.1120E+01
    -22.456  0.5522E+01  0.1204E+01
    -22.441  0.5371E+01  0.1286E+01
    -22.425  0.5164E+01  0.1364E+01
    -22.410  0.4908E+01  0.1439E+01
    -22.395  0.4611E+01  0.1509E+01
    -22.380  0.4282E+01  0.1574E+01
    -22.365  0.3931E+01  0.1634E+01
    -22.349  0.3568E+01  0.1688E+01
    -22.334  0.3201E+01  0.1737E+01
    -22.319  0.2839E+01  0.1780E+01
    -22.304  0.2488E+01  0.1818E+01
    -22.289  0.2156E+01  0.1850E+01
    -22.273  0.1847E+01  0.1878E+01
    -22.258  0.1564E+01  0.1902E+01
    -22.243  0.1310E+01  0.1922E+01
    -22.228  0.1084E+01  0.1939E+01
    -22.213  0.8865E+00  0.1952E+01
    -22.197  0.7168E+00  0.1963E+01
    -22.182  0.5730E+00  0.1972E+01
    -22.167  0.4528E+00  0.1979E+01
    -22.152  0.3537E+00  0.1984E+01
    -22.137  0.2731E+00  0.1988E+01
    -22.121  0.2085E+00  0.1991E+01
    -22.106  0.1573E+00  0.1994E+01
    -22.091  0.1174E+00  0.1995E+01
    -22.076  0.8662E-01  0.1997E+01
    -22.061  0.6325E-01  0.1998E+01
    -22.045  0.4576E-01  0.1998E+01
    -22.030  0.3290E-01  0.1999E+01
    -22.015  0.2365E-01  0.1999E+01
    -22.000  0.1721E-01  0.2000E+01
    -21.985  0.1300E-01  0.2000E+01
    -21.969  0.1062E-01  0.2000E+01
    -21.954  0.9804E-02  0.2000E+01
    -21.939  0.1049E-01  0.2000E+01
    -21.924  0.1273E-01  0.2000E+01
    -21.909  0.1677E-01  0.2001E+01
    -21.893  0.2299E-01  0.2001E+01
    -21.878  0.3197E-01  0.2002E+01
    -21.863  0.4448E-01  0.2002E+01
    -21.848  0.6151E-01  0.2003E+01
    -21.833  0.8430E-01  0.2004E+01
    -21.817  0.1143E+00  0.2006E+01
    -21.802  0.1534E+00  0.2008E+01
    -21.787  0.2034E+00  0.2012E+01
    -21.772  0.2668E+00  0.2016E+01
    -21.757  0.3458E+00  0.2021E+01
    -21.741  0.4432E+00  0.2028E+01
    -21.726  0.5615E+00  0.2036E+01
    -21.711  0.7033E+00  0.2047E+01
    -21.696  0.8707E+00  0.2060E+01
    -21.681  0.1066E+01  0.2076E+01
    -21.665  0.1290E+01  0.2096E+01
    -21.650  0.1543E+01  0.2119E+01
    -21.635  0.1825E+01  0.2147E+01
    -21.620  0.2135E+01  0.2180E+01
    -21.605  0.2468E+01  0.2217E+01
    -21.589  0.2822E+01  0.2260E+01
    -21.574  0.3191E+01  0.2308E+01
    -21.559  0.3569E+01  0.2363E+01
    -21.544  0.3947E+01  0.2423E+01
    -21.529  0.4319E+01  0.2488E+01
    -21.513  0.4677E+01  0.2559E+01
    -21.498  0.5011E+01  0.2636E+01
    -21.483  0.5316E+01  0.2716E+01
    -21.468  0.5585E+01  0.2801E+01
    -21.453  0.5814E+01  0.2890E+01
    -21.437  0.6001E+01  0.2981E+01
    -21.422  0.6144E+01  0.3074E+01
    -21.407  0.6247E+01  0.3169E+01
    -21.392  0.6314E+01  0.3265E+01
    -21.377  0.6349E+01  0.3362E+01
    -21.361  0.6363E+01  0.3458E+01
    -21.346  0.6362E+01  0.3555E+01
    -21.331  0.6358E+01  0.3652E+01
    -21.316  0.6359E+01  0.3748E+01
    -21.301  0.6375E+01  0.3845E+01
    -21.285  0.6413E+01  0.3943E+01
    -21.270  0.6481E+01  0.4041E+01
    -21.255  0.6581E+01  0.4141E+01
    -21.240  0.6716E+01  0.4243E+01
    -21.225  0.6886E+01  0.4348E+01
    -21.209  0.7088E+01  0.4456E+01
    -21.194  0.7317E+01  0.4567E+01
    -21.179  0.7568E+01  0.4682E+01
    -21.164  0.7833E+01  0.4801E+01
    -21.149  0.8103E+01  0.4924E+01
    -21.133  0.8371E+01  0.5051E+01
    -21.118  0.8628E+01  0.5183E+01
    -21.103  0.8867E+01  0.5317E+01
    -21.088  0.9082E+01  0.5455E+01
    -21.073  0.9268E+01  0.5596E+01
    -21.057  0.9420E+01  0.5739E+01
    -21.042  0.9537E+01  0.5884E+01
    -21.027  0.9618E+01  0.6031E+01
    -21.012  0.9663E+01  0.6177E+01
    -20.997  0.9676E+01  0.6325E+01
    -20.981  0.9658E+01  0.6471E+01
    -20.966  0.9614E+01  0.6617E+01
    -20.951  0.9548E+01  0.6763E+01
    -20.936  0.9467E+01  0.6906E+01
    -20.921  0.9375E+01  0.7049E+01
    -20.905  0.9279E+01  0.7190E+01
    -20.890  0.9185E+01  0.7330E+01
    -20.875  0.9098E+01  0.7468E+01
    -20.860  0.9023E+01  0.7605E+01
    -20.845  0.8965E+01  0.7741E+01
    -20.829  0.8928E+01  0.7877E+01
    -20.814  0.8914E+01  0.8013E+01
    -20.799  0.8925E+01  0.8148E+01
    -20.784  0.8963E+01  0.8284E+01
    -20.769  0.9027E+01  0.8422E+01
    -20.753  0.9115E+01  0.8560E+01
    -20.738  0.9225E+01  0.8700E+01
    -20.723  0.9355E+01  0.8843E+01
    -20.708  0.9501E+01  0.8987E+01
    -20.693  0.9659E+01  0.9134E+01
    -20.677  0.9825E+01  0.9283E+01
    -20.662  0.9994E+01  0.9435E+01
    -20.647  0.1016E+02  0.9590E+01
    -20.632  0.1033E+02  0.9747E+01
    -20.617  0.1049E+02  0.9906E+01
    -20.601  0.1065E+02  0.1007E+02
    -20.586  0.1080E+02  0.1023E+02
    -20.571  0.1094E+02  0.1040E+02
    -20.556  0.1107E+02  0.1057E+02
    -20.541  0.1121E+02  0.1074E+02
    -20.525  0.1133E+02  0.1091E+02
    -20.510  0.1146E+02  0.1108E+02
    -20.495  0.1159E+02  0.1126E+02
    -20.480  0.1172E+02  0.1144E+02
    -20.465  0.1186E+02  0.1162E+02
    -20.449  0.1200E+02  0.1180E+02
    -20.434  0.1214E+02  0.1198E+02
    -20.419  0.1228E+02  0.1217E+02
    -20.404  0.1243E+02  0.1236E+02
    -20.389  0.1257E+02  0.1255E+02
    -20.373  0.1270E+02  0.1274E+02
    -20.358  0.1282E+02  0.1294E+02
    -20.343  0.1293E+02  0.1314E+02
    -20.328  0.1302E+02  0.1333E+02
    -20.313  0.1309E+02  0.1353E+02
    -20.297  0.1313E+02  0.1373E+02
    -20.282  0.1315E+02  0.1393E+02
    -20.267  0.1315E+02  0.1413E+02
    -20.252  0.1312E+02  0.1433E+02
    -20.237  0.1307E+02  0.1453E+02
    -20.221  0.1301E+02  0.1473E+02
    -20.206  0.1294E+02  0.1492E+02
    -20.191  0.1286E+02  0.1512E+02
    -20.176  0.1279E+02  0.1531E+02
    -20.161  0.1273E+02  0.1551E+02
    -20.145  0.1268E+02  0.1570E+02
    -20.130  0.1264E+02  0.1589E+02
    -20.115  0.1264E+02  0.1608E+02
    -20.100  0.1266E+02  0.1628E+02
    -20.085  0.1270E+02  0.1647E+02
    -20.069  0.1278E+02  0.1666E+02
    -20.054  0.1288E+02  0.1686E+02
    -20.039  0.1300E+02  0.1706E+02
    -20.024  0.1315E+02  0.1726E+02
    -20.009  0.1331E+02  0.1746E+02
    -19.993  0.1348E+02  0.1767E+02
    -19.978  0.1366E+02  0.1787E+02
    -19.963  0.1384E+02  0.1808E+02
    -19.948  0.1403E+02  0.1830E+02
    -19.933  0.1421E+02  0.1851E+02
    -19.917  0.1438E+02  0.1873E+02
    -19.902  0.1454E+02  0.1895E+02
    -19.887  0.1469E+02  0.1918E+02
    -19.872  0.1484E+02  0.1940E+02
    -19.857  0.1497E+02  0.1963E+02
    -19.841  0.1509E+02  0.1986E+02
    -19.826  0.1520E+02  0.2009E+02
    -19.811  0.1529E+02  0.2032E+02
    -19.796  0.1538E+02  0.2055E+02
    -19.781  0.1546E+02  0.2079E+02
    -19.765  0.1552E+02  0.2103E+02
    -19.750  0.1558E+02  0.2126E+02
    -19.735  0.1562E+02  0.2150E+02
    -19.720  0.1564E+02  0.2174E+02
    -19.705  0.1565E+02  0.2198E+02
    -19.689  0.1565E+02  0.2221E+02
    -19.674  0.1563E+02  0.2245E+02
    -19.659  0.1559E+02  0.2269E+02
    -19.644  0.1554E+02  0.2292E+02
    -19.629  0.1546E+02  0.2316E+02
    -19.613  0.1537E+02  0.2339E+02
    -19.598  0.1526E+02  0.2362E+02
    -19.583  0.1514E+02  0.2385E+02
    -19.568  0.1500E+02  0.2408E+02
    -19.553  0.1484E+02  0.2431E+02
    -19.537  0.1467E+02  0.2453E+02
    -19.522  0.1449E+02  0.2475E+02
    -19.507  0.1430E+02  0.2497E+02
    -19.492  0.1410E+02  0.2518E+02
    -19.477  0.1390E+02  0.2539E+02
    -19.461  0.1369E+02  0.2560E+02
    -19.446  0.1349E+02  0.2581E+02
    -19.431  0.1329E+02  0.2601E+02
    -19.416  0.1309E+02  0.2621E+02
    -19.401  0.1290E+02  0.2640E+02
    -19.385  0.1272E+02  0.2660E+02
    -19.370  0.1256E+02  0.2679E+02
    -19.355  0.1241E+02  0.2698E+02
    -19.340  0.1228E+02  0.2716E+02
    -19.325  0.1216E+02  0.2735E+02
    -19.309  0.1206E+02  0.2753E+02
    -19.294  0.1198E+02  0.2771E+02
    -19.279  0.1193E+02  0.2790E+02
    -19.264  0.1189E+02  0.2808E+02
    -19.249  0.1188E+02  0.2826E+02
    -19.233  0.1189E+02  0.2844E+02
    -19.218  0.1193E+02  0.2862E+02
    -19.203  0.1199E+02  0.2880E+02
    -19.188  0.1208E+02  0.2898E+02
    -19.173  0.1218E+02  0.2917E+02
    -19.157  0.1232E+02  0.2936E+02
    -19.142  0.1247E+02  0.2955E+02
    -19.127  0.1265E+02  0.2974E+02
    -19.112  0.1284E+02  0.2993E+02
    -19.097  0.1305E+02  0.3013E+02
    -19.081  0.1328E+02  0.3033E+02
    -19.066  0.1351E+02  0.3054E+02
    -19.051  0.1375E+02  0.3075E+02
    -19.036  0.1400E+02  0.3096E+02
    -19.021  0.1425E+02  0.3118E+02
    -19.005  0.1449E+02  0.3140E+02
    -18.990  0.1473E+02  0.3162E+02
    -18.975  0.1495E+02  0.3185E+02
    -18.960  0.1517E+02  0.3208E+02
    -18.945  0.1538E+02  0.3231E+02
    -18.929  0.1557E+02  0.3255E+02
    -18.914  0.1574E+02  0.3279E+02
    -18.899  0.1591E+02  0.3303E+02
    -18.884  0.1606E+02  0.3328E+02
    -18.869  0.1620E+02  0.3352E+02
    -18.853  0.1632E+02  0.3377E+02
    -18.838  0.1644E+02  0.3402E+02
    -18.823  0.1655E+02  0.3427E+02
    -18.808  0.1664E+02  0.3452E+02
    -18.793  0.1673E+02  0.3478E+02
    -18.777  0.1682E+02  0.3503E+02
    -18.762  0.1689E+02  0.3529E+02
    -18.747  0.1695E+02  0.3555E+02
    -18.732  0.1700E+02  0.3581E+02
    -18.717  0.1704E+02  0.3607E+02
    -18.701  0.1706E+02  0.3633E+02
    -18.686  0.1707E+02  0.3658E+02
    -18.671  0.1705E+02  0.3684E+02
    -18.656  0.1701E+02  0.3710E+02
    -18.641  0.1695E+02  0.3736E+02
    -18.625  0.1686E+02  0.3762E+02
    -18.610  0.1674E+02  0.3787E+02
    -18.595  0.1660E+02  0.3812E+02
    -18.580  0.1643E+02  0.3837E+02
    -18.565  0.1623E+02  0.3862E+02
    -18.549  0.1601E+02  0.3886E+02
    -18.534  0.1578E+02  0.3910E+02
    -18.519  0.1552E+02  0.3934E+02
    -18.504  0.1525E+02  0.3957E+02
    -18.489  0.1497E+02  0.3980E+02
    -18.473  0.1468E+02  0.4002E+02
    -18.458  0.1439E+02  0.4024E+02
    -18.443  0.1411E+02  0.4045E+02
    -18.428  0.1384E+02  0.4066E+02
    -18.413  0.1357E+02  0.4087E+02
    -18.397  0.1333E+02  0.4107E+02
    -18.382  0.1310E+02  0.4127E+02
    -18.367  0.1289E+02  0.4147E+02
    -18.352  0.1271E+02  0.4166E+02
    -18.337  0.1255E+02  0.4185E+02
    -18.321  0.1242E+02  0.4204E+02
    -18.306  0.1230E+02  0.4223E+02
    -18.291  0.1221E+02  0.4241E+02
    -18.276  0.1215E+02  0.4260E+02
    -18.261  0.1210E+02  0.4278E+02
    -18.245  0.1207E+02  0.4297E+02
    -18.230  0.1206E+02  0.4315E+02
    -18.215  0.1206E+02  0.4333E+02
    -18.200  0.1209E+02  0.4352E+02
    -18.185  0.1212E+02  0.4370E+02
    -18.169  0.1217E+02  0.4389E+02
    -18.154  0.1224E+02  0.4407E+02
    -18.139  0.1232E+02  0.4426E+02
    -18.124  0.1242E+02  0.4445E+02
    -18.109  0.1253E+02  0.4464E+02
    -18.093  0.1266E+02  0.4483E+02
    -18.078  0.1280E+02  0.4502E+02
    -18.063  0.1296E+02  0.4522E+02
    -18.048  0.1313E+02  0.4542E+02
    -18.033  0.1332E+02  0.4562E+02
    -18.017  0.1351E+02  0.4583E+02
    -18.002  0.1371E+02  0.4604E+02
    -17.987  0.1391E+02  0.4625E+02
    -17.972  0.1411E+02  0.4646E+02
    -17.957  0.1430E+02  0.4668E+02
    -17.941  0.1448E+02  0.4690E+02
    -17.926  0.1466E+02  0.4712E+02
    -17.911  0.1481E+02  0.4735E+02
    -17.896  0.1495E+02  0.4758E+02
    -17.881  0.1506E+02  0.4780E+02
    -17.865  0.1515E+02  0.4804E+02
    -17.850  0.1521E+02  0.4827E+02
    -17.835  0.1525E+02  0.4850E+02
    -17.820  0.1525E+02  0.4873E+02
    -17.805  0.1523E+02  0.4896E+02
    -17.789  0.1518E+02  0.4919E+02
    -17.774  0.1510E+02  0.4942E+02
    -17.759  0.1500E+02  0.4965E+02
    -17.744  0.1489E+02  0.4988E+02
    -17.729  0.1475E+02  0.5010E+02
    -17.713  0.1461E+02  0.5032E+02
    -17.698  0.1447E+02  0.5054E+02
    -17.683  0.1432E+02  0.5076E+02
    -17.668  0.1419E+02  0.5098E+02
    -17.653  0.1406E+02  0.5119E+02
    -17.637  0.1395E+02  0.5140E+02
    -17.622  0.1387E+02  0.5161E+02
    -17.607  0.1380E+02  0.5182E+02
    -17.592  0.1376E+02  0.5203E+02
    -17.577  0.1374E+02  0.5224E+02
    -17.561  0.1375E+02  0.5245E+02
    -17.546  0.1378E+02  0.5266E+02
    -17.531  0.1382E+02  0.5287E+02
    -17.516  0.1388E+02  0.5308E+02
    -17.501  0.1395E+02  0.5329E+02
    -17.485  0.1402E+02  0.5350E+02
    -17.470  0.1409E+02  0.5372E+02
    -17.455  0.1416E+02  0.5393E+02
    -17.440  0.1422E+02  0.5415E+02
    -17.425  0.1426E+02  0.5437E+02
    -17.409  0.1428E+02  0.5458E+02
    -17.394  0.1429E+02  0.5480E+02
    -17.379  0.1428E+02  0.5502E+02
    -17.364  0.1425E+02  0.5523E+02
    -17.349  0.1421E+02  0.5545E+02
    -17.333  0.1416E+02  0.5567E+02
    -17.318  0.1410E+02  0.5588E+02
    -17.303  0.1405E+02  0.5609E+02
    -17.288  0.1399E+02  0.5631E+02
    -17.273  0.1394E+02  0.5652E+02
    -17.257  0.1391E+02  0.5673E+02
    -17.242  0.1390E+02  0.5694E+02
    -17.227  0.1391E+02  0.5715E+02
    -17.212  0.1395E+02  0.5736E+02
    -17.197  0.1401E+02  0.5758E+02
    -17.181  0.1409E+02  0.5779E+02
    -17.166  0.1420E+02  0.5801E+02
    -17.151  0.1433E+02  0.5823E+02
    -17.136  0.1448E+02  0.5845E+02
    -17.121  0.1463E+02  0.5867E+02
    -17.105  0.1479E+02  0.5889E+02
    -17.090  0.1495E+02  0.5912E+02
    -17.075  0.1511E+02  0.5935E+02
    -17.060  0.1525E+02  0.5958E+02
    -17.045  0.1537E+02  0.5982E+02
    -17.029  0.1548E+02  0.6005E+02
    -17.014  0.1557E+02  0.6029E+02
    -16.999  0.1562E+02  0.6052E+02
    -16.984  0.1566E+02  0.6076E+02
    -16.969  0.1566E+02  0.6100E+02
    -16.953  0.1564E+02  0.6124E+02
    -16.938  0.1560E+02  0.6148E+02
    -16.923  0.1554E+02  0.6171E+02
    -16.908  0.1546E+02  0.6195E+02
    -16.893  0.1536E+02  0.6218E+02
    -16.877  0.1526E+02  0.6241E+02
    -16.862  0.1515E+02  0.6264E+02
    -16.847  0.1503E+02  0.6287E+02
    -16.832  0.1492E+02  0.6310E+02
    -16.817  0.1482E+02  0.6332E+02
    -16.801  0.1472E+02  0.6355E+02
    -16.786  0.1463E+02  0.6377E+02
    -16.771  0.1456E+02  0.6399E+02
    -16.756  0.1449E+02  0.6421E+02
    -16.741  0.1444E+02  0.6443E+02
    -16.725  0.1439E+02  0.6465E+02
    -16.710  0.1435E+02  0.6487E+02
    -16.695  0.1431E+02  0.6508E+02
    -16.680  0.1427E+02  0.6530E+02
    -16.665  0.1422E+02  0.6552E+02
    -16.649  0.1417E+02  0.6573E+02
    -16.634  0.1410E+02  0.6595E+02
    -16.619  0.1401E+02  0.6616E+02
    -16.604  0.1392E+02  0.6637E+02
    -16.589  0.1380E+02  0.6658E+02
    -16.573  0.1368E+02  0.6679E+02
    -16.558  0.1354E+02  0.6700E+02
    -16.543  0.1340E+02  0.6720E+02
    -16.528  0.1325E+02  0.6740E+02
    -16.513  0.1311E+02  0.6760E+02
    -16.497  0.1298E+02  0.6780E+02
    -16.482  0.1287E+02  0.6799E+02
    -16.467  0.1278E+02  0.6819E+02
    -16.452  0.1272E+02  0.6838E+02
    -16.437  0.1268E+02  0.6857E+02
    -16.422  0.1269E+02  0.6877E+02
    -16.406  0.1273E+02  0.6896E+02
    -16.391  0.1280E+02  0.6915E+02
    -16.376  0.1291E+02  0.6935E+02
    -16.361  0.1306E+02  0.6955E+02
    -16.346  0.1323E+02  0.6975E+02
    -16.330  0.1343E+02  0.6995E+02
    -16.315  0.1364E+02  0.7016E+02
    -16.300  0.1387E+02  0.7037E+02
    -16.285  0.1411E+02  0.7059E+02
    -16.270  0.1434E+02  0.7080E+02
    -16.254  0.1458E+02  0.7103E+02
    -16.239  0.1480E+02  0.7125E+02
    -16.224  0.1501E+02  0.7148E+02
    -16.209  0.1520E+02  0.7171E+02
    -16.194  0.1536E+02  0.7194E+02
    -16.178  0.1551E+02  0.7218E+02
    -16.163  0.1562E+02  0.7242E+02
    -16.148  0.1571E+02  0.7266E+02
    -16.133  0.1578E+02  0.7290E+02
    -16.118  0.1581E+02  0.7314E+02
    -16.102  0.1582E+02  0.7338E+02
    -16.087  0.1580E+02  0.7362E+02
    -16.072  0.1576E+02  0.7386E+02
    -16.057  0.1570E+02  0.7409E+02
    -16.042  0.1562E+02  0.7433E+02
    -16.026  0.1552E+02  0.7457E+02
    -16.011  0.1542E+02  0.7480E+02
    -15.996  0.1530E+02  0.7503E+02
    -15.981  0.1519E+02  0.7527E+02
    -15.966  0.1506E+02  0.7549E+02
    -15.950  0.1495E+02  0.7572E+02
    -15.935  0.1483E+02  0.7595E+02
    -15.920  0.1473E+02  0.7617E+02
    -15.905  0.1463E+02  0.7639E+02
    -15.890  0.1454E+02  0.7661E+02
    -15.874  0.1446E+02  0.7683E+02
    -15.859  0.1439E+02  0.7705E+02
    -15.844  0.1433E+02  0.7727E+02
    -15.829  0.1428E+02  0.7749E+02
    -15.814  0.1424E+02  0.7770E+02
    -15.798  0.1420E+02  0.7792E+02
    -15.783  0.1416E+02  0.7814E+02
    -15.768  0.1413E+02  0.7835E+02
    -15.753  0.1410E+02  0.7856E+02
    -15.738  0.1408E+02  0.7878E+02
    -15.722  0.1405E+02  0.7899E+02
    -15.707  0.1402E+02  0.7920E+02
    -15.692  0.1398E+02  0.7942E+02
    -15.677  0.1395E+02  0.7963E+02
    -15.662  0.1392E+02  0.7984E+02
    -15.646  0.1388E+02  0.8005E+02
    -15.631  0.1385E+02  0.8026E+02
    -15.616  0.1382E+02  0.8047E+02
    -15.601  0.1380E+02  0.8068E+02
    -15.586  0.1378E+02  0.8089E+02
    -15.570  0.1376E+02  0.8110E+02
    -15.555  0.1375E+02  0.8131E+02
    -15.540  0.1374E+02  0.8152E+02
    -15.525  0.1374E+02  0.8173E+02
    -15.510  0.1375E+02  0.8194E+02
    -15.494  0.1376E+02  0.8215E+02
    -15.479  0.1377E+02  0.8235E+02
    -15.464  0.1378E+02  0.8256E+02
    -15.449  0.1379E+02  0.8277E+02
    -15.434  0.1380E+02  0.8298E+02
    -15.418  0.1380E+02  0.8319E+02
    -15.403  0.1379E+02  0.8340E+02
    -15.388  0.1377E+02  0.8361E+02
    -15.373  0.1373E+02  0.8382E+02
    -15.358  0.1369E+02  0.8403E+02
    -15.342  0.1363E+02  0.8424E+02
    -15.327  0.1355E+02  0.8444E+02
    -15.312  0.1347E+02  0.8465E+02
    -15.297  0.1337E+02  0.8485E+02
    -15.282  0.1327E+02  0.8505E+02
    -15.266  0.1316E+02  0.8525E+02
    -15.251  0.1305E+02  0.8545E+02
    -15.236  0.1294E+02  0.8565E+02
    -15.221  0.1285E+02  0.8584E+02
    -15.206  0.1276E+02  0.8604E+02
    -15.190  0.1269E+02  0.8623E+02
    -15.175  0.1264E+02  0.8642E+02
    -15.160  0.1261E+02  0.8661E+02
    -15.145  0.1260E+02  0.8680E+02
    -15.130  0.1262E+02  0.8700E+02
    -15.114  0.1267E+02  0.8719E+02
    -15.099  0.1274E+02  0.8738E+02
    -15.084  0.1284E+02  0.8758E+02
    -15.069  0.1297E+02  0.8777E+02
    -15.054  0.1312E+02  0.8797E+02
    -15.038  0.1329E+02  0.8818E+02
    -15.023  0.1348E+02  0.8838E+02
    -15.008  0.1369E+02  0.8859E+02
    -14.993  0.1391E+02  0.8880E+02
    -14.978  0.1414E+02  0.8901E+02
    -14.962  0.1437E+02  0.8923E+02
    -14.947  0.1461E+02  0.8946E+02
    -14.932  0.1486E+02  0.8968E+02
    -14.917  0.1510E+02  0.8991E+02
    -14.902  0.1533E+02  0.9014E+02
    -14.886  0.1556E+02  0.9038E+02
    -14.871  0.1578E+02  0.9062E+02
    -14.856  0.1599E+02  0.9086E+02
    -14.841  0.1618E+02  0.9111E+02
    -14.826  0.1636E+02  0.9136E+02
    -14.810  0.1652E+02  0.9161E+02
    -14.795  0.1666E+02  0.9186E+02
    -14.780  0.1678E+02  0.9212E+02
    -14.765  0.1688E+02  0.9237E+02
    -14.750  0.1696E+02  0.9263E+02
    -14.734  0.1700E+02  0.9289E+02
    -14.719  0.1702E+02  0.9315E+02
    -14.704  0.1701E+02  0.9341E+02
    -14.689  0.1697E+02  0.9367E+02
    -14.674  0.1690E+02  0.9392E+02
    -14.658  0.1680E+02  0.9418E+02
    -14.643  0.1667E+02  0.9443E+02
    -14.628  0.1651E+02  0.9468E+02
    -14.613  0.1633E+02  0.9493E+02
    -14.598  0.1612E+02  0.9518E+02
    -14.582  0.1590E+02  0.9542E+02
    -14.567  0.1566E+02  0.9565E+02
    -14.552  0.1540E+02  0.9589E+02
    -14.537  0.1514E+02  0.9612E+02
    -14.522  0.1487E+02  0.9634E+02
    -14.506  0.1461E+02  0.9657E+02
    -14.491  0.1435E+02  0.9678E+02
    -14.476  0.1409E+02  0.9700E+02
    -14.461  0.1385E+02  0.9721E+02
    -14.446  0.1362E+02  0.9742E+02
    -14.430  0.1340E+02  0.9762E+02
    -14.415  0.1320E+02  0.9782E+02
    -14.400  0.1301E+02  0.9802E+02
    -14.385  0.1284E+02  0.9821E+02
    -14.370  0.1268E+02  0.9841E+02
    -14.354  0.1255E+02  0.9860E+02
    -14.339  0.1243E+02  0.9879E+02
    -14.324  0.1232E+02  0.9897E+02
    -14.309  0.1224E+02  0.9916E+02
    -14.294  0.1217E+02  0.9934E+02
    -14.278  0.1212E+02  0.9953E+02
    -14.263  0.1209E+02  0.9971E+02
    -14.248  0.1209E+02  0.9990E+02
    -14.233  0.1211E+02  0.1001E+03
    -14.218  0.1216E+02  0.1003E+03
    -14.202  0.1224E+02  0.1005E+03
    -14.187  0.1235E+02  0.1006E+03
    -14.172  0.1249E+02  0.1008E+03
    -14.157  0.1265E+02  0.1010E+03
    -14.142  0.1285E+02  0.1012E+03
    -14.126  0.1308E+02  0.1014E+03
    -14.111  0.1333E+02  0.1016E+03
    -14.096  0.1360E+02  0.1018E+03
    -14.081  0.1389E+02  0.1020E+03
    -14.066  0.1419E+02  0.1023E+03
    -14.050  0.1450E+02  0.1025E+03
    -14.035  0.1481E+02  0.1027E+03
    -14.020  0.1512E+02  0.1029E+03
    -14.005  0.1543E+02  0.1032E+03
    -13.990  0.1572E+02  0.1034E+03
    -13.974  0.1600E+02  0.1036E+03
    -13.959  0.1626E+02  0.1039E+03
    -13.944  0.1650E+02  0.1041E+03
    -13.929  0.1672E+02  0.1044E+03
    -13.914  0.1691E+02  0.1047E+03
    -13.898  0.1708E+02  0.1049E+03
    -13.883  0.1722E+02  0.1052E+03
    -13.868  0.1733E+02  0.1054E+03
    -13.853  0.1742E+02  0.1057E+03
    -13.838  0.1748E+02  0.1060E+03
    -13.822  0.1752E+02  0.1062E+03
    -13.807  0.1753E+02  0.1065E+03
    -13.792  0.1752E+02  0.1068E+03
    -13.777  0.1748E+02  0.1070E+03
    -13.762  0.1743E+02  0.1073E+03
    -13.746  0.1735E+02  0.1076E+03
    -13.731  0.1726E+02  0.1078E+03
    -13.716  0.1716E+02  0.1081E+03
    -13.701  0.1705E+02  0.1083E+03
    -13.686  0.1692E+02  0.1086E+03
    -13.670  0.1679E+02  0.1089E+03
    -13.655  0.1665E+02  0.1091E+03
    -13.640  0.1650E+02  0.1094E+03
    -13.625  0.1636E+02  0.1096E+03
    -13.610  0.1621E+02  0.1099E+03
    -13.594  0.1607E+02  0.1101E+03
    -13.579  0.1593E+02  0.1103E+03
    -13.564  0.1579E+02  0.1106E+03
    -13.549  0.1566E+02  0.1108E+03
    -13.534  0.1554E+02  0.1111E+03
    -13.518  0.1542E+02  0.1113E+03
    -13.503  0.1531E+02  0.1115E+03
    -13.488  0.1521E+02  0.1118E+03
    -13.473  0.1512E+02  0.1120E+03
    -13.458  0.1505E+02  0.1122E+03
    -13.442  0.1499E+02  0.1124E+03
    -13.427  0.1494E+02  0.1127E+03
    -13.412  0.1491E+02  0.1129E+03
    -13.397  0.1490E+02  0.1131E+03
    -13.382  0.1489E+02  0.1133E+03
    -13.366  0.1491E+02  0.1136E+03
    -13.351  0.1493E+02  0.1138E+03
    -13.336  0.1496E+02  0.1140E+03
    -13.321  0.1500E+02  0.1143E+03
    -13.306  0.1504E+02  0.1145E+03
    -13.290  0.1509E+02  0.1147E+03
    -13.275  0.1512E+02  0.1149E+03
    -13.260  0.1515E+02  0.1152E+03
    -13.245  0.1516E+02  0.1154E+03
    -13.230  0.1515E+02  0.1156E+03
    -13.214  0.1512E+02  0.1159E+03
    -13.199  0.1508E+02  0.1161E+03
    -13.184  0.1500E+02  0.1163E+03
    -13.169  0.1490E+02  0.1165E+03
    -13.154  0.1478E+02  0.1168E+03
    -13.138  0.1463E+02  0.1170E+03
    -13.123  0.1446E+02  0.1172E+03
    -13.108  0.1428E+02  0.1174E+03
    -13.093  0.1408E+02  0.1176E+03
    -13.078  0.1387E+02  0.1179E+03
    -13.062  0.1366E+02  0.1181E+03
    -13.047  0.1345E+02  0.1183E+03
    -13.032  0.1325E+02  0.1185E+03
    -13.017  0.1307E+02  0.1187E+03
    -13.002  0.1291E+02  0.1189E+03
    -12.986  0.1278E+02  0.1191E+03
    -12.971  0.1268E+02  0.1193E+03
    -12.956  0.1262E+02  0.1194E+03
    -12.941  0.1260E+02  0.1196E+03
    -12.926  0.1262E+02  0.1198E+03
    -12.910  0.1268E+02  0.1200E+03
    -12.895  0.1279E+02  0.1202E+03
    -12.880  0.1294E+02  0.1204E+03
    -12.865  0.1312E+02  0.1206E+03
    -12.850  0.1334E+02  0.1208E+03
    -12.834  0.1358E+02  0.1210E+03
    -12.819  0.1385E+02  0.1212E+03
    -12.804  0.1412E+02  0.1214E+03
    -12.789  0.1440E+02  0.1217E+03
    -12.774  0.1468E+02  0.1219E+03
    -12.758  0.1496E+02  0.1221E+03
    -12.743  0.1521E+02  0.1223E+03
    -12.728  0.1545E+02  0.1226E+03
    -12.713  0.1566E+02  0.1228E+03
    -12.698  0.1585E+02  0.1231E+03
    -12.682  0.1600E+02  0.1233E+03
    -12.667  0.1612E+02  0.1235E+03
    -12.652  0.1622E+02  0.1238E+03
    -12.637  0.1629E+02  0.1240E+03
    -12.622  0.1633E+02  0.1243E+03
    -12.606  0.1635E+02  0.1245E+03
    -12.591  0.1636E+02  0.1248E+03
    -12.576  0.1635E+02  0.1250E+03
    -12.561  0.1633E+02  0.1253E+03
    -12.546  0.1632E+02  0.1255E+03
    -12.530  0.1630E+02  0.1258E+03
    -12.515  0.1628E+02  0.1260E+03
    -12.500  0.1627E+02  0.1263E+03
    -12.485  0.1627E+02  0.1265E+03
    -12.470  0.1627E+02  0.1268E+03
    -12.454  0.1628E+02  0.1270E+03
    -12.439  0.1628E+02  0.1273E+03
    -12.424  0.1630E+02  0.1275E+03
    -12.409  0.1631E+02  0.1278E+03
    -12.394  0.1631E+02  0.1280E+03
    -12.378  0.1631E+02  0.1283E+03
    -12.363  0.1630E+02  0.1285E+03
    -12.348  0.1628E+02  0.1287E+03
    -12.333  0.1624E+02  0.1290E+03
    -12.318  0.1618E+02  0.1292E+03
    -12.302  0.1611E+02  0.1295E+03
    -12.287  0.1602E+02  0.1297E+03
    -12.272  0.1591E+02  0.1300E+03
    -12.257  0.1578E+02  0.1302E+03
    -12.242  0.1565E+02  0.1304E+03
    -12.226  0.1550E+02  0.1307E+03
    -12.211  0.1534E+02  0.1309E+03
    -12.196  0.1519E+02  0.1311E+03
    -12.181  0.1503E+02  0.1314E+03
    -12.166  0.1488E+02  0.1316E+03
    -12.150  0.1473E+02  0.1318E+03
    -12.135  0.1460E+02  0.1320E+03
    -12.120  0.1449E+02  0.1323E+03
    -12.105  0.1439E+02  0.1325E+03
    -12.090  0.1431E+02  0.1327E+03
    -12.074  0.1425E+02  0.1329E+03
    -12.059  0.1421E+02  0.1331E+03
    -12.044  0.1419E+02  0.1334E+03
    -12.029  0.1418E+02  0.1336E+03
    -12.014  0.1418E+02  0.1338E+03
    -11.998  0.1420E+02  0.1340E+03
    -11.983  0.1422E+02  0.1342E+03
    -11.968  0.1425E+02  0.1344E+03
    -11.953  0.1428E+02  0.1347E+03