 209 209   0   0
  0.5443308E+02  0.2936121E-08  0.1937337E-08  0.2000000E-08  0.5000000E-15
  1.000000000000000E-004
  CAR 
 unknown system                          
      3.21962308    -24.29603346 2000     -3.85575286      1.00000000
    -24.296  0.0000E+00  0.0000E+00
    -24.282  0.0000E+00  0.0000E+00
    -24.269  0.0000E+00  0.0000E+00
    -24.255  0.0000E+00  0.0000E+00
    -24.241  0.0000E+00  0.0000E+00
    -24.227  0.0000E+00  0.0000E+00
    -24.213  0.0000E+00  0.0000E+00
    -24.200  0.0000E+00  0.0000E+00
    -24.186  0.0000E+00  0.0000E+00
    -24.172  0.0000E+00  0.0000E+00
    -24.158  0.0000E+00  0.0000E+00
    -24.145  0.0000E+00  0.0000E+00
    -24.131  0.0000E+00  0.0000E+00
    -24.117  0.0000E+00  0.0000E+00
    -24.103  0.0000E+00  0.0000E+00
    -24.090  0.0000E+00  0.0000E+00
    -24.076  0.0000E+00  0.0000E+00
    -24.062  0.0000E+00  0.0000E+00
    -24.048  0.0000E+00  0.0000E+00
    -24.035  0.0000E+00  0.0000E+00
    -24.021  0.0000E+00  0.0000E+00
    -24.007  0.0000E+00  0.0000E+00
    -23.993  0.0000E+00  0.0000E+00
    -23.979  0.0000E+00  0.0000E+00
    -23.966  0.0000E+00  0.0000E+00
    -23.952  0.0000E+00  0.0000E+00
    -23.938  0.0000E+00  0.0000E+00
    -23.924  0.0000E+00  0.0000E+00
    -23.911  0.0000E+00  0.0000E+00
    -23.897  0.0000E+00  0.0000E+00
    -23.883  0.0000E+00  0.0000E+00
    -23.869  0.0000E+00  0.0000E+00
    -23.856  0.0000E+00  0.0000E+00
    -23.842  0.0000E+00  0.0000E+00
    -23.828  0.0000E+00  0.0000E+00
    -23.814  0.0000E+00  0.0000E+00
    -23.801  0.0000E+00  0.0000E+00
    -23.787  0.0000E+00  0.0000E+00
    -23.773  0.0000E+00  0.0000E+00
    -23.759  0.0000E+00  0.0000E+00
    -23.745  0.0000E+00  0.0000E+00
    -23.732  0.0000E+00  0.0000E+00
    -23.718  0.0000E+00  0.0000E+00
    -23.704  0.0000E+00  0.0000E+00
    -23.690  0.0000E+00  0.0000E+00
    -23.677  0.0000E+00  0.0000E+00
    -23.663  0.0000E+00  0.0000E+00
    -23.649  0.0000E+00  0.0000E+00
    -23.635  0.0000E+00  0.0000E+00
    -23.622  0.0000E+00  0.0000E+00
    -23.608  0.0000E+00  0.0000E+00
    -23.594  0.0000E+00  0.0000E+00
    -23.580  0.0000E+00  0.0000E+00
    -23.567  0.0000E+00  0.0000E+00
    -23.553  0.0000E+00  0.0000E+00
    -23.539  0.0000E+00  0.0000E+00
    -23.525  0.0000E+00  0.0000E+00
    -23.511  0.0000E+00  0.0000E+00
    -23.498  0.0000E+00  0.0000E+00
    -23.484  0.0000E+00  0.0000E+00
    -23.470  0.8066E-14  0.1110E-15
    -23.456  0.2689E-14  0.1480E-15
    -23.443  0.1703E-13  0.3824E-15
    -23.429  0.4033E-13  0.9375E-15
    -23.415  0.7886E-13  0.2023E-14
    -23.401  0.1765E-12  0.4453E-14
    -23.388  0.3782E-12  0.9659E-14
    -23.374  0.8084E-12  0.2079E-13
    -23.360  0.1700E-11  0.4419E-13
    -23.346  0.3555E-11  0.9312E-13
    -23.333  0.7371E-11  0.1946E-12
    -23.319  0.1512E-10  0.4027E-12
    -23.305  0.3073E-10  0.8256E-12
    -23.291  0.6186E-10  0.1677E-11
    -23.277  0.1234E-09  0.3376E-11
    -23.264  0.2439E-09  0.6732E-11
    -23.250  0.4774E-09  0.1330E-10
    -23.236  0.9258E-09  0.2605E-10
    -23.222  0.1779E-08  0.5053E-10
    -23.209  0.3386E-08  0.9713E-10
    -23.195  0.6384E-08  0.1850E-09
    -23.181  0.1193E-07  0.3492E-09
    -23.167  0.2207E-07  0.6529E-09
    -23.154  0.4046E-07  0.1210E-08
    -23.140  0.7349E-07  0.2222E-08
    -23.126  0.1322E-06  0.4042E-08
    -23.112  0.2358E-06  0.7287E-08
    -23.099  0.4164E-06  0.1302E-07
    -23.085  0.7285E-06  0.2305E-07
    -23.071  0.1263E-05  0.4043E-07
    -23.057  0.2169E-05  0.7028E-07
    -23.043  0.3689E-05  0.1211E-06
    -23.030  0.6219E-05  0.2067E-06
    -23.016  0.1038E-04  0.3496E-06
    -23.002  0.1718E-04  0.5861E-06
    -22.988  0.2816E-04  0.9737E-06
    -22.975  0.4573E-04  0.1603E-05
    -22.961  0.7357E-04  0.2616E-05
    -22.947  0.1173E-03  0.4230E-05
    -22.933  0.1852E-03  0.6779E-05
    -22.920  0.2898E-03  0.1077E-04
    -22.906  0.4492E-03  0.1695E-04
    -22.892  0.6899E-03  0.2645E-04
    -22.878  0.1050E-02  0.4090E-04
    -22.865  0.1583E-02  0.6268E-04
    -22.851  0.2364E-02  0.9523E-04
    -22.837  0.3499E-02  0.1434E-03
    -22.823  0.5132E-02  0.2140E-03
    -22.809  0.7456E-02  0.3167E-03
    -22.796  0.1074E-01  0.4644E-03
    -22.782  0.1531E-01  0.6752E-03
    -22.768  0.2165E-01  0.9732E-03
    -22.754  0.3032E-01  0.1390E-02
    -22.741  0.4208E-01  0.1970E-02
    -22.727  0.5787E-01  0.2766E-02
    -22.713  0.7886E-01  0.3852E-02
    -22.699  0.1065E+00  0.5317E-02
    -22.686  0.1425E+00  0.7279E-02
    -22.672  0.1890E+00  0.9881E-02
    -22.658  0.2484E+00  0.1330E-01
    -22.644  0.3236E+00  0.1776E-01
    -22.631  0.4178E+00  0.2351E-01
    -22.617  0.5347E+00  0.3087E-01
    -22.603  0.6782E+00  0.4020E-01
    -22.589  0.8527E+00  0.5194E-01
    -22.575  0.1063E+01  0.6657E-01
    -22.562  0.1313E+01  0.8464E-01
    -22.548  0.1609E+01  0.1068E+00
    -22.534  0.1954E+01  0.1337E+00
    -22.520  0.2353E+01  0.1661E+00
    -22.507  0.2810E+01  0.2047E+00
    -22.493  0.3329E+01  0.2506E+00
    -22.479  0.3912E+01  0.3044E+00
    -22.465  0.4559E+01  0.3672E+00
    -22.452  0.5272E+01  0.4397E+00
    -22.438  0.6050E+01  0.5230E+00
    -22.424  0.6890E+01  0.6179E+00
    -22.410  0.7789E+01  0.7251E+00
    -22.397  0.8742E+01  0.8454E+00
    -22.383  0.9742E+01  0.9795E+00
    -22.369  0.1078E+02  0.1128E+01
    -22.355  0.1186E+02  0.1291E+01
    -22.341  0.1296E+02  0.1470E+01
    -22.328  0.1407E+02  0.1663E+01
    -22.314  0.1520E+02  0.1872E+01
    -22.300  0.1632E+02  0.2097E+01
    -22.286  0.1743E+02  0.2337E+01
    -22.273  0.1853E+02  0.2592E+01
    -22.259  0.1960E+02  0.2862E+01
    -22.245  0.2064E+02  0.3146E+01
    -22.231  0.2164E+02  0.3444E+01
    -22.218  0.2261E+02  0.3755E+01
    -22.204  0.2353E+02  0.4079E+01
    -22.190  0.2440E+02  0.4415E+01
    -22.176  0.2522E+02  0.4762E+01
    -22.163  0.2599E+02  0.5119E+01
    -22.149  0.2671E+02  0.5487E+01
    -22.135  0.2736E+02  0.5864E+01
    -22.121  0.2796E+02  0.6249E+01
    -22.107  0.2849E+02  0.6641E+01
    -22.094  0.2897E+02  0.7039E+01
    -22.080  0.2938E+02  0.7444E+01
    -22.066  0.2972E+02  0.7853E+01
    -22.052  0.3000E+02  0.8266E+01
    -22.039  0.3022E+02  0.8682E+01
    -22.025  0.3037E+02  0.9100E+01
    -22.011  0.3046E+02  0.9519E+01
    -21.997  0.3050E+02  0.9939E+01
    -21.984  0.3048E+02  0.1036E+02
    -21.970  0.3041E+02  0.1078E+02
    -21.956  0.3030E+02  0.1119E+02
    -21.942  0.3014E+02  0.1161E+02
    -21.929  0.2996E+02  0.1202E+02
    -21.915  0.2976E+02  0.1243E+02
    -21.901  0.2954E+02  0.1284E+02
    -21.887  0.2932E+02  0.1324E+02
    -21.873  0.2910E+02  0.1364E+02
    -21.860  0.2890E+02  0.1404E+02
    -21.846  0.2871E+02  0.1443E+02
    -21.832  0.2855E+02  0.1483E+02
    -21.818  0.2843E+02  0.1522E+02
    -21.805  0.2836E+02  0.1561E+02
    -21.791  0.2833E+02  0.1600E+02
    -21.777  0.2835E+02  0.1639E+02
    -21.763  0.2843E+02  0.1678E+02
    -21.750  0.2856E+02  0.1717E+02
    -21.736  0.2876E+02  0.1757E+02
    -21.722  0.2901E+02  0.1797E+02
    -21.708  0.2931E+02  0.1837E+02
    -21.695  0.2966E+02  0.1878E+02
    -21.681  0.3005E+02  0.1919E+02
    -21.667  0.3047E+02  0.1961E+02
    -21.653  0.3092E+02  0.2004E+02
    -21.639  0.3139E+02  0.2047E+02
    -21.626  0.3186E+02  0.2091E+02
    -21.612  0.3232E+02  0.2136E+02
    -21.598  0.3277E+02  0.2181E+02
    -21.584  0.3319E+02  0.2226E+02
    -21.571  0.3357E+02  0.2273E+02
    -21.557  0.3390E+02  0.2319E+02
    -21.543  0.3418E+02  0.2366E+02
    -21.529  0.3439E+02  0.2414E+02
    -21.516  0.3453E+02  0.2461E+02
    -21.502  0.3459E+02  0.2509E+02
    -21.488  0.3458E+02  0.2556E+02
    -21.474  0.3450E+02  0.2604E+02
    -21.461  0.3433E+02  0.2651E+02
    -21.447  0.3409E+02  0.2698E+02
    -21.433  0.3379E+02  0.2745E+02
    -21.419  0.3342E+02  0.2791E+02
    -21.405  0.3299E+02  0.2836E+02
    -21.392  0.3251E+02  0.2881E+02
    -21.378  0.3200E+02  0.2925E+02
    -21.364  0.3145E+02  0.2968E+02
    -21.350  0.3088E+02  0.3011E+02
    -21.337  0.3030E+02  0.3052E+02
    -21.323  0.2972E+02  0.3093E+02
    -21.309  0.2915E+02  0.3133E+02
    -21.295  0.2860E+02  0.3173E+02
    -21.282  0.2808E+02  0.3211E+02
    -21.268  0.2760E+02  0.3249E+02
    -21.254  0.2716E+02  0.3287E+02
    -21.240  0.2678E+02  0.3324E+02
    -21.227  0.2646E+02  0.3360E+02
    -21.213  0.2620E+02  0.3396E+02
    -21.199  0.2600E+02  0.3432E+02
    -21.185  0.2588E+02  0.3467E+02
    -21.171  0.2583E+02  0.3503E+02
    -21.158  0.2585E+02  0.3539E+02
    -21.144  0.2594E+02  0.3574E+02
    -21.130  0.2609E+02  0.3610E+02
    -21.116  0.2630E+02  0.3646E+02
    -21.103  0.2657E+02  0.3683E+02
    -21.089  0.2689E+02  0.3720E+02
    -21.075  0.2726E+02  0.3757E+02
    -21.061  0.2766E+02  0.3796E+02
    -21.048  0.2808E+02  0.3834E+02
    -21.034  0.2853E+02  0.3873E+02
    -21.020  0.2899E+02  0.3913E+02
    -21.006  0.2945E+02  0.3954E+02
    -20.993  0.2990E+02  0.3995E+02
    -20.979  0.3034E+02  0.4037E+02
    -20.965  0.3075E+02  0.4079E+02
    -20.951  0.3114E+02  0.4122E+02
    -20.937  0.3149E+02  0.4165E+02
    -20.924  0.3179E+02  0.4209E+02
    -20.910  0.3204E+02  0.4253E+02
    -20.896  0.3224E+02  0.4298E+02
    -20.882  0.3239E+02  0.4342E+02
    -20.869  0.3247E+02  0.4387E+02
    -20.855  0.3250E+02  0.4432E+02
    -20.841  0.3246E+02  0.4476E+02
    -20.827  0.3238E+02  0.4521E+02
    -20.814  0.3224E+02  0.4565E+02
    -20.800  0.3205E+02  0.4609E+02
    -20.786  0.3182E+02  0.4653E+02
    -20.772  0.3156E+02  0.4697E+02
    -20.759  0.3127E+02  0.4740E+02
    -20.745  0.3096E+02  0.4782E+02
    -20.731  0.3064E+02  0.4824E+02
    -20.717  0.3032E+02  0.4866E+02
    -20.703  0.3000E+02  0.4907E+02
    -20.690  0.2969E+02  0.4948E+02
    -20.676  0.2940E+02  0.4989E+02
    -20.662  0.2914E+02  0.5029E+02
    -20.648  0.2892E+02  0.5069E+02
    -20.635  0.2873E+02  0.5108E+02
    -20.621  0.2859E+02  0.5148E+02
    -20.607  0.2850E+02  0.5187E+02
    -20.593  0.2847E+02  0.5226E+02
    -20.580  0.2850E+02  0.5265E+02
    -20.566  0.2859E+02  0.5305E+02
    -20.552  0.2874E+02  0.5344E+02
    -20.538  0.2895E+02  0.5384E+02
    -20.525  0.2922E+02  0.5424E+02
    -20.511  0.2955E+02  0.5465E+02
    -20.497  0.2993E+02  0.5506E+02
    -20.483  0.3036E+02  0.5548E+02
    -20.469  0.3083E+02  0.5590E+02
    -20.456  0.3133E+02  0.5633E+02
    -20.442  0.3185E+02  0.5677E+02
    -20.428  0.3239E+02  0.5722E+02
    -20.414  0.3293E+02  0.5767E+02
    -20.401  0.3347E+02  0.5813E+02
    -20.387  0.3399E+02  0.5860E+02
    -20.373  0.3449E+02  0.5908E+02
    -20.359  0.3496E+02  0.5956E+02
    -20.346  0.3539E+02  0.6004E+02
    -20.332  0.3578E+02  0.6054E+02
    -20.318  0.3612E+02  0.6103E+02
    -20.304  0.3641E+02  0.6153E+02
    -20.291  0.3665E+02  0.6204E+02
    -20.277  0.3685E+02  0.6255E+02
    -20.263  0.3699E+02  0.6305E+02
    -20.249  0.3709E+02  0.6357E+02
    -20.235  0.3714E+02  0.6408E+02
    -20.222  0.3715E+02  0.6459E+02
    -20.208  0.3713E+02  0.6510E+02
    -20.194  0.3708E+02  0.6561E+02
    -20.180  0.3701E+02  0.6612E+02
    -20.167  0.3691E+02  0.6663E+02
    -20.153  0.3679E+02  0.6713E+02
    -20.139  0.3666E+02  0.6764E+02
    -20.125  0.3652E+02  0.6814E+02
    -20.112  0.3638E+02  0.6864E+02
    -20.098  0.3622E+02  0.6914E+02
    -20.084  0.3606E+02  0.6964E+02
    -20.070  0.3590E+02  0.7013E+02
    -20.057  0.3573E+02  0.7062E+02
    -20.043  0.3556E+02  0.7111E+02
    -20.029  0.3539E+02  0.7160E+02
    -20.015  0.3521E+02  0.7208E+02
    -20.001  0.3503E+02  0.7257E+02
    -19.988  0.3485E+02  0.7305E+02
    -19.974  0.3467E+02  0.7352E+02
    -19.960  0.3448E+02  0.7400E+02
    -19.946  0.3429E+02  0.7447E+02
    -19.933  0.3411E+02  0.7494E+02
    -19.919  0.3392E+02  0.7541E+02
    -19.905  0.3374E+02  0.7587E+02
    -19.891  0.3356E+02  0.7633E+02
    -19.878  0.3339E+02  0.7679E+02
    -19.864  0.3322E+02  0.7725E+02
    -19.850  0.3306E+02  0.7770E+02
    -19.836  0.3291E+02  0.7816E+02
    -19.823  0.3277E+02  0.7861E+02
    -19.809  0.3264E+02  0.7906E+02
    -19.795  0.3252E+02  0.7951E+02
    -19.781  0.3240E+02  0.7995E+02
    -19.767  0.3230E+02  0.8040E+02
    -19.754  0.3220E+02  0.8084E+02
    -19.740  0.3211E+02  0.8128E+02
    -19.726  0.3202E+02  0.8172E+02
    -19.712  0.3193E+02  0.8216E+02
    -19.699  0.3184E+02  0.8260E+02
    -19.685  0.3175E+02  0.8304E+02
    -19.671  0.3167E+02  0.8347E+02
    -19.657  0.3158E+02  0.8391E+02
    -19.644  0.3149E+02  0.8434E+02
    -19.630  0.3139E+02  0.8477E+02
    -19.616  0.3130E+02  0.8520E+02
    -19.602  0.3121E+02  0.8563E+02
    -19.589  0.3111E+02  0.8606E+02
    -19.575  0.3102E+02  0.8649E+02
    -19.561  0.3093E+02  0.8691E+02
    -19.547  0.3085E+02  0.8734E+02
    -19.533  0.3078E+02  0.8776E+02
    -19.520  0.3071E+02  0.8818E+02
    -19.506  0.3065E+02  0.8861E+02
    -19.492  0.3061E+02  0.8903E+02
    -19.478  0.3059E+02  0.8945E+02
    -19.465  0.3057E+02  0.8987E+02
    -19.451  0.3058E+02  0.9029E+02
    -19.437  0.3060E+02  0.9071E+02
    -19.423  0.3064E+02  0.9113E+02
    -19.410  0.3070E+02  0.9156E+02
    -19.396  0.3077E+02  0.9198E+02
    -19.382  0.3085E+02  0.9240E+02
    -19.368  0.3095E+02  0.9283E+02
    -19.355  0.3106E+02  0.9326E+02
    -19.341  0.3118E+02  0.9369E+02
    -19.327  0.3130E+02  0.9412E+02
    -19.313  0.3143E+02  0.9455E+02
    -19.299  0.3155E+02  0.9499E+02
    -19.286  0.3168E+02  0.9542E+02
    -19.272  0.3179E+02  0.9586E+02
    -19.258  0.3190E+02  0.9630E+02
    -19.244  0.3199E+02  0.9674E+02
    -19.231  0.3208E+02  0.9718E+02
    -19.217  0.3215E+02  0.9762E+02
    -19.203  0.3221E+02  0.9807E+02
    -19.189  0.3225E+02  0.9851E+02
    -19.176  0.3228E+02  0.9895E+02
    -19.162  0.3230E+02  0.9940E+02
    -19.148  0.3230E+02  0.9984E+02
    -19.134  0.3230E+02  0.1003E+03
    -19.121  0.3228E+02  0.1007E+03
    -19.107  0.3226E+02  0.1012E+03
    -19.093  0.3223E+02  0.1016E+03
    -19.079  0.3219E+02  0.1021E+03
    -19.065  0.3215E+02  0.1025E+03
    -19.052  0.3211E+02  0.1029E+03
    -19.038  0.3206E+02  0.1034E+03
    -19.024  0.3201E+02  0.1038E+03
    -19.010  0.3195E+02  0.1043E+03
    -18.997  0.3190E+02  0.1047E+03
    -18.983  0.3184E+02  0.1051E+03
    -18.969  0.3178E+02  0.1056E+03
    -18.955  0.3172E+02  0.1060E+03
    -18.942  0.3167E+02  0.1065E+03
    -18.928  0.3161E+02  0.1069E+03
    -18.914  0.3156E+02  0.1073E+03
    -18.900  0.3152E+02  0.1078E+03
    -18.887  0.3148E+02  0.1082E+03
    -18.873  0.3145E+02  0.1086E+03
    -18.859  0.3143E+02  0.1091E+03
    -18.845  0.3143E+02  0.1095E+03
    -18.831  0.3144E+02  0.1099E+03
    -18.818  0.3147E+02  0.1104E+03
    -18.804  0.3152E+02  0.1108E+03
    -18.790  0.3159E+02  0.1112E+03
    -18.776  0.3168E+02  0.1117E+03
    -18.763  0.3180E+02  0.1121E+03
    -18.749  0.3194E+02  0.1125E+03
    -18.735  0.3209E+02  0.1130E+03
    -18.721  0.3227E+02  0.1134E+03
    -18.708  0.3246E+02  0.1139E+03
    -18.694  0.3266E+02  0.1143E+03
    -18.680  0.3288E+02  0.1148E+03
    -18.666  0.3310E+02  0.1152E+03
    -18.653  0.3332E+02  0.1157E+03
    -18.639  0.3354E+02  0.1161E+03
    -18.625  0.3375E+02  0.1166E+03
    -18.611  0.3396E+02  0.1171E+03
    -18.597  0.3416E+02  0.1176E+03
    -18.584  0.3434E+02  0.1180E+03
    -18.570  0.3451E+02  0.1185E+03
    -18.556  0.3466E+02  0.1190E+03
    -18.542  0.3480E+02  0.1195E+03
    -18.529  0.3491E+02  0.1199E+03
    -18.515  0.3501E+02  0.1204E+03
    -18.501  0.3509E+02  0.1209E+03
    -18.487  0.3515E+02  0.1214E+03
    -18.474  0.3520E+02  0.1219E+03
    -18.460  0.3523E+02  0.1224E+03
    -18.446  0.3524E+02  0.1228E+03
    -18.432  0.3525E+02  0.1233E+03
    -18.419  0.3524E+02  0.1238E+03
    -18.405  0.3522E+02  0.1243E+03
    -18.391  0.3520E+02  0.1248E+03
    -18.377  0.3517E+02  0.1253E+03
    -18.363  0.3514E+02  0.1257E+03
    -18.350  0.3510E+02  0.1262E+03
    -18.336  0.3507E+02  0.1267E+03
    -18.322  0.3504E+02  0.1272E+03
    -18.308  0.3502E+02  0.1277E+03
    -18.295  0.3500E+02  0.1282E+03
    -18.281  0.3499E+02  0.1286E+03
    -18.267  0.3499E+02  0.1291E+03
    -18.253  0.3501E+02  0.1296E+03
    -18.240  0.3504E+02  0.1301E+03
    -18.226  0.3507E+02  0.1306E+03
    -18.212  0.3512E+02  0.1311E+03
    -18.198  0.3519E+02  0.1315E+03
    -18.185  0.3526E+02  0.1320E+03
    -18.171  0.3533E+02  0.1325E+03
    -18.157  0.3542E+02  0.1330E+03
    -18.143  0.3551E+02  0.1335E+03
    -18.129  0.3559E+02  0.1340E+03
    -18.116  0.3568E+02  0.1345E+03
    -18.102  0.3576E+02  0.1350E+03
    -18.088  0.3584E+02  0.1355E+03
    -18.074  0.3592E+02  0.1359E+03
    -18.061  0.3598E+02  0.1364E+03
    -18.047  0.3604E+02  0.1369E+03
    -18.033  0.3609E+02  0.1374E+03
    -18.019  0.3613E+02  0.1379E+03
    -18.006  0.3617E+02  0.1384E+03
    -17.992  0.3620E+02  0.1389E+03
    -17.978  0.3623E+02  0.1394E+03
    -17.964  0.3627E+02  0.1399E+03
    -17.951  0.3631E+02  0.1404E+03
    -17.937  0.3635E+02  0.1409E+03
    -17.923  0.3641E+02  0.1414E+03
    -17.909  0.3648E+02  0.1419E+03
    -17.895  0.3657E+02  0.1424E+03
    -17.882  0.3668E+02  0.1429E+03
    -17.868  0.3680E+02  0.1434E+03
    -17.854  0.3695E+02  0.1440E+03
    -17.840  0.3711E+02  0.1445E+03
    -17.827  0.3729E+02  0.1450E+03
    -17.813  0.3749E+02  0.1455E+03
    -17.799  0.3769E+02  0.1460E+03
    -17.785  0.3790E+02  0.1465E+03
    -17.772  0.3812E+02  0.1471E+03
    -17.758  0.3833E+02  0.1476E+03
    -17.744  0.3853E+02  0.1481E+03
    -17.730  0.3872E+02  0.1486E+03
    -17.717  0.3889E+02  0.1492E+03
    -17.703  0.3903E+02  0.1497E+03
    -17.689  0.3915E+02  0.1503E+03
    -17.675  0.3923E+02  0.1508E+03
    -17.661  0.3928E+02  0.1513E+03
    -17.648  0.3929E+02  0.1519E+03
    -17.634  0.3926E+02  0.1524E+03
    -17.620  0.3920E+02  0.1530E+03
    -17.606  0.3910E+02  0.1535E+03
    -17.593  0.3896E+02  0.1540E+03
    -17.579  0.3879E+02  0.1546E+03
    -17.565  0.3860E+02  0.1551E+03
    -17.551  0.3838E+02  0.1556E+03
    -17.538  0.3813E+02  0.1562E+03
    -17.524  0.3787E+02  0.1567E+03
    -17.510  0.3760E+02  0.1572E+03
    -17.496  0.3732E+02  0.1577E+03
    -17.483  0.3703E+02  0.1582E+03
    -17.469  0.3673E+02  0.1587E+03
    -17.455  0.3643E+02  0.1592E+03
    -17.441  0.3614E+02  0.1597E+03
    -17.427  0.3584E+02  0.1602E+03
    -17.414  0.3555E+02  0.1607E+03
    -17.400  0.3526E+02  0.1612E+03
    -17.386  0.3498E+02  0.1617E+03
    -17.372  0.3471E+02  0.1621E+03
    -17.359  0.3444E+02  0.1626E+03
    -17.345  0.3418E+02  0.1631E+03
    -17.331  0.3393E+02  0.1636E+03
    -17.317  0.3370E+02  0.1640E+03
    -17.304  0.3348E+02  0.1645E+03
    -17.290  0.3328E+02  0.1649E+03
    -17.276  0.3309E+02  0.1654E+03
    -17.262  0.3293E+02  0.1659E+03
    -17.249  0.3280E+02  0.1663E+03
    -17.235  0.3268E+02  0.1668E+03
    -17.221  0.3259E+02  0.1672E+03
    -17.207  0.3252E+02  0.1676E+03
    -17.193  0.3247E+02  0.1681E+03
    -17.180  0.3243E+02  0.1685E+03
    -17.166  0.3241E+02  0.1690E+03
    -17.152  0.3240E+02  0.1694E+03
    -17.138  0.3239E+02  0.1699E+03
    -17.125  0.3239E+02  0.1703E+03
    -17.111  0.3237E+02  0.1708E+03
    -17.097  0.3235E+02  0.1712E+03
    -17.083  0.3232E+02  0.1717E+03
    -17.070  0.3227E+02  0.1721E+03
    -17.056  0.3220E+02  0.1725E+03
    -17.042  0.3212E+02  0.1730E+03
    -17.028  0.3202E+02  0.1734E+03
    -17.015  0.3191E+02  0.1739E+03
    -17.001  0.3179E+02  0.1743E+03
    -16.987  0.3167E+02  0.1747E+03
    -16.973  0.3154E+02  0.1752E+03
    -16.959  0.3143E+02  0.1756E+03
    -16.946  0.3133E+02  0.1760E+03
    -16.932  0.3124E+02  0.1765E+03
    -16.918  0.3118E+02  0.1769E+03
    -16.904  0.3114E+02  0.1773E+03
    -16.891  0.3113E+02  0.1778E+03
    -16.877  0.3115E+02  0.1782E+03
    -16.863  0.3119E+02  0.1786E+03
    -16.849  0.3126E+02  0.1790E+03
    -16.836  0.3136E+02  0.1795E+03
    -16.822  0.3147E+02  0.1799E+03
    -16.808  0.3159E+02  0.1803E+03
    -16.794  0.3172E+02  0.1808E+03
    -16.781  0.3184E+02  0.1812E+03
    -16.767  0.3196E+02  0.1817E+03
    -16.753  0.3206E+02  0.1821E+03
    -16.739  0.3213E+02  0.1825E+03
    -16.725  0.3218E+02  0.1830E+03
    -16.712  0.3220E+02  0.1834E+03
    -16.698  0.3218E+02  0.1839E+03
    -16.684  0.3212E+02  0.1843E+03
    -16.670  0.3203E+02  0.1848E+03
    -16.657  0.3190E+02  0.1852E+03
    -16.643  0.3174E+02  0.1856E+03
    -16.629  0.3156E+02  0.1861E+03
    -16.615  0.3135E+02  0.1865E+03
    -16.602  0.3113E+02  0.1869E+03
    -16.588  0.3090E+02  0.1874E+03
    -16.574  0.3068E+02  0.1878E+03
    -16.560  0.3047E+02  0.1882E+03
    -16.547  0.3028E+02  0.1886E+03
    -16.533  0.3012E+02  0.1890E+03
    -16.519  0.3000E+02  0.1894E+03
    -16.505  0.2992E+02  0.1899E+03
    -16.491  0.2989E+02  0.1903E+03
    -16.478  0.2990E+02  0.1907E+03
    -16.464  0.2997E+02  0.1911E+03
    -16.450  0.3009E+02  0.1915E+03
    -16.436  0.3027E+02  0.1919E+03
    -16.423  0.3048E+02  0.1923E+03
    -16.409  0.3074E+02  0.1928E+03
    -16.395  0.3103E+02  0.1932E+03
    -16.381  0.3135E+02  0.1936E+03
    -16.368  0.3169E+02  0.1941E+03
    -16.354  0.3204E+02  0.1945E+03
    -16.340  0.3240E+02  0.1949E+03
    -16.326  0.3275E+02  0.1954E+03
    -16.313  0.3309E+02  0.1958E+03
    -16.299  0.3341E+02  0.1963E+03
    -16.285  0.3371E+02  0.1968E+03
    -16.271  0.3398E+02  0.1972E+03
    -16.257  0.3421E+02  0.1977E+03
    -16.244  0.3441E+02  0.1982E+03
    -16.230  0.3457E+02  0.1987E+03
    -16.216  0.3469E+02  0.1991E+03
    -16.202  0.3477E+02  0.1996E+03
    -16.189  0.3481E+02  0.2001E+03
    -16.175  0.3483E+02  0.2006E+03
    -16.161  0.3481E+02  0.2011E+03
    -16.147  0.3476E+02  0.2015E+03
    -16.134  0.3469E+02  0.2020E+03
    -16.120  0.3460E+02  0.2025E+03
    -16.106  0.3451E+02  0.2030E+03
    -16.092  0.3441E+02  0.2034E+03
    -16.079  0.3430E+02  0.2039E+03
    -16.065  0.3421E+02  0.2044E+03
    -16.051  0.3412E+02  0.2048E+03
    -16.037  0.3405E+02  0.2053E+03
    -16.023  0.3400E+02  0.2058E+03
    -16.010  0.3397E+02  0.2063E+03
    -15.996  0.3396E+02  0.2067E+03
    -15.982  0.3397E+02  0.2072E+03
    -15.968  0.3401E+02  0.2077E+03
    -15.955  0.3406E+02  0.2081E+03
    -15.941  0.3414E+02  0.2086E+03
    -15.927  0.3423E+02  0.2091E+03
    -15.913  0.3432E+02  0.2095E+03
    -15.900  0.3443E+02  0.2100E+03
    -15.886  0.3454E+02  0.2105E+03
    -15.872  0.3464E+02  0.2110E+03
    -15.858  0.3475E+02  0.2114E+03
    -15.845  0.3484E+02  0.2119E+03
    -15.831  0.3492E+02  0.2124E+03
    -15.817  0.3499E+02  0.2129E+03
    -15.803  0.3504E+02  0.2134E+03
    -15.789  0.3508E+02  0.2138E+03
    -15.776  0.3509E+02  0.2143E+03
    -15.762  0.3509E+02  0.2148E+03
    -15.748  0.3508E+02  0.2153E+03
    -15.734  0.3504E+02  0.2158E+03
    -15.721  0.3500E+02  0.2163E+03
    -15.707  0.3494E+02  0.2167E+03
    -15.693  0.3486E+02  0.2172E+03
    -15.679  0.3478E+02  0.2177E+03
    -15.666  0.3469E+02  0.2182E+03
    -15.652  0.3459E+02  0.2187E+03
    -15.638  0.3449E+02  0.2191E+03
    -15.624  0.3439E+02  0.2196E+03
    -15.611  0.3429E+02  0.2201E+03
    -15.597  0.3419E+02  0.2205E+03
    -15.583  0.3409E+02  0.2210E+03
    -15.569  0.3399E+02  0.2215E+03
    -15.555  0.3391E+02  0.2219E+03
    -15.542  0.3383E+02  0.2224E+03
    -15.528  0.3376E+02  0.2229E+03
    -15.514  0.3370E+02  0.2233E+03
    -15.500  0.3365E+02  0.2238E+03
    -15.487  0.3362E+02  0.2243E+03
    -15.473  0.3359E+02  0.2247E+03
    -15.459  0.3359E+02  0.2252E+03
    -15.445  0.3359E+02  0.2257E+03
    -15.432  0.3361E+02  0.2261E+03
    -15.418  0.3364E+02  0.2266E+03
    -15.404  0.3369E+02  0.2270E+03
    -15.390  0.3374E+02  0.2275E+03
    -15.377  0.3381E+02  0.2280E+03
    -15.363  0.3389E+02  0.2284E+03
    -15.349  0.3398E+02  0.2289E+03
    -15.335  0.3408E+02  0.2294E+03
    -15.321  0.3418E+02  0.2299E+03
    -15.308  0.3429E+02  0.2303E+03
    -15.294  0.3440E+02  0.2308E+03
    -15.280  0.3450E+02  0.2313E+03
    -15.266  0.3461E+02  0.2317E+03
    -15.253  0.3471E+02  0.2322E+03
    -15.239  0.3480E+02  0.2327E+03
    -15.225  0.3488E+02  0.2332E+03
    -15.211  0.3495E+02  0.2337E+03
    -15.198  0.3501E+02  0.2341E+03
    -15.184  0.3505E+02  0.2346E+03
    -15.170  0.3507E+02  0.2351E+03
    -15.156  0.3507E+02  0.2356E+03
    -15.143  0.3506E+02  0.2361E+03
    -15.129  0.3503E+02  0.2366E+03
    -15.115  0.3498E+02  0.2370E+03
    -15.101  0.3491E+02  0.2375E+03
    -15.087  0.3482E+02  0.2380E+03
    -15.074  0.3472E+02  0.2385E+03
    -15.060  0.3461E+02  0.2390E+03
    -15.046  0.3449E+02  0.2394E+03
    -15.032  0.3435E+02  0.2399E+03
    -15.019  0.3422E+02  0.2404E+03
    -15.005  0.3408E+02  0.2408E+03
    -14.991  0.3395E+02  0.2413E+03
    -14.977  0.3381E+02  0.2418E+03
    -14.964  0.3369E+02  0.2422E+03
    -14.950  0.3357E+02  0.2427E+03
    -14.936  0.3347E+02  0.2432E+03
    -14.922  0.3338E+02  0.2436E+03
    -14.909  0.3331E+02  0.2441E+03
    -14.895  0.3325E+02  0.2445E+03
    -14.881  0.3321E+02  0.2450E+03
    -14.867  0.3319E+02  0.2455E+03
    -14.853  0.3319E+02  0.2459E+03
    -14.840  0.3321E+02  0.2464E+03
    -14.826  0.3324E+02  0.2468E+03
    -14.812  0.3330E+02  0.2473E+03
    -14.798  0.3337E+02  0.2477E+03
    -14.785  0.3346E+02  0.2482E+03
    -14.771  0.3357E+02  0.2487E+03
    -14.757  0.3369E+02  0.2491E+03
    -14.743  0.3383E+02  0.2496E+03
    -14.730  0.3398E+02  0.2501E+03
    -14.716  0.3413E+02  0.2505E+03
    -14.702  0.3430E+02  0.2510E+03
    -14.688  0.3448E+02  0.2515E+03
    -14.675  0.3466E+02  0.2520E+03
    -14.661  0.3485E+02  0.2524E+03
    -14.647  0.3504E+02  0.2529E+03
    -14.633  0.3524E+02  0.2534E+03
    -14.619  0.3543E+02  0.2539E+03
    -14.606  0.3561E+02  0.2544E+03
    -14.592  0.3579E+02  0.2549E+03
    -14.578  0.3595E+02  0.2554E+03
    -14.564  0.3609E+02  0.2559E+03
    -14.551  0.3622E+02  0.2564E+03
    -14.537  0.3632E+02  0.2569E+03
    -14.523  0.3640E+02  0.2574E+03
    -14.509  0.3644E+02  0.2579E+03
    -14.496  0.3645E+02  0.2584E+03
    -14.482  0.3642E+02  0.2589E+03
    -14.468  0.3636E+02  0.2594E+03
    -14.454  0.3626E+02  0.2599E+03
    -14.441  0.3613E+02  0.2604E+03
    -14.427  0.3597E+02  0.2609E+03
    -14.413  0.3578E+02  0.2614E+03
    -14.399  0.3557E+02  0.2618E+03
    -14.385  0.3534E+02  0.2623E+03
    -14.372  0.3510E+02  0.2628E+03
    -14.358  0.3487E+02  0.2633E+03
    -14.344  0.3464E+02  0.2638E+03
    -14.330  0.3442E+02  0.2642E+03
    -14.317  0.3423E+02  0.2647E+03
    -14.303  0.3407E+02  0.2652E+03
    -14.289  0.3395E+02  0.2656E+03
    -14.275  0.3387E+02  0.2661E+03
    -14.262  0.3384E+02  0.2666E+03
    -14.248  0.3385E+02  0.2670E+03
    -14.234  0.3392E+02  0.2675E+03
    -14.220  0.3403E+02  0.2680E+03
    -14.207  0.3419E+02  0.2685E+03
    -14.193  0.3439E+02  0.2689E+03
    -14.179  0.3464E+02  0.2694E+03
    -14.165  0.3491E+02  0.2699E+03
    -14.151  0.3521E+02  0.2704E+03
    -14.138  0.3553E+02  0.2709E+03
    -14.124  0.3586E+02  0.2714E+03
    -14.110  0.3620E+02  0.2718E+03
    -14.096  0.3654E+02  0.2724E+03
    -14.083  0.3688E+02  0.2729E+03
    -14.069  0.3721E+02  0.2734E+03
    -14.055  0.3754E+02  0.2739E+03
    -14.041  0.3785E+02  0.2744E+03
    -14.028  0.3814E+02  0.2749E+03
    -14.014  0.3843E+02  0.2755E+03
    -14.000  0.3871E+02  0.2760E+03
    -13.986  0.3898E+02  0.2765E+03
    -13.973  0.3923E+02  0.2771E+03
    -13.959  0.3948E+02  0.2776E+03
    -13.945  0.3973E+02  0.2782E+03
    -13.931  0.3997E+02  0.2787E+03
    -13.917  0.4020E+02  0.2793E+03
    -13.904  0.4042E+02  0.2798E+03
    -13.890  0.4064E+02  0.2804E+03
    -13.876  0.4084E+02  0.2809E+03
    -13.862  0.4102E+02  0.2815E+03
    -13.849  0.4118E+02  0.2821E+03
    -13.835  0.4131E+02  0.2826E+03
    -13.821  0.4142E+02  0.2832E+03
    -13.807  0.4148E+02  0.2838E+03
    -13.794  0.4151E+02  0.2844E+03
    -13.780  0.4149E+02  0.2849E+03
    -13.766  0.4142E+02  0.2855E+03
    -13.752  0.4131E+02  0.2861E+03
    -13.739  0.4115E+02  0.2866E+03
    -13.725  0.4094E+02  0.2872E+03
    -13.711  0.4068E+02  0.2878E+03
    -13.697  0.4038E+02  0.2883E+03
    -13.683  0.4005E+02  0.2889E+03
    -13.670  0.3968E+02  0.2894E+03
    -13.656  0.3929E+02  0.2900E+03
    -13.642  0.3888E+02  0.2905E+03
    -13.628  0.3846E+02  0.2910E+03
    -13.615  0.3804E+02  0.2915E+03
    -13.601  0.3762E+02  0.2921E+03
    -13.587  0.3722E+02  0.2926E+03
    -13.573  0.3685E+02  0.2931E+03
    -13.560  0.3650E+02  0.2936E+03
    -13.546  0.3618E+02  0.2941E+03
    -13.532  0.3591E+02  0.2946E+03
    -13.518  0.3568E+02  0.2951E+03
    -13.505  0.3549E+02  0.2956E+03
    -13.491  0.3535E+02  0.2960E+03
    -13.477  0.3526E+02  0.2965E+03
    -13.463  0.3521E+02  0.2970E+03
    -13.449  0.3520E+02  0.2975E+03
    -13.436  0.3524E+02  0.2980E+03
    -13.422  0.3531E+02  0.2985E+03
    -13.408  0.3542E+02  0.2990E+03
    -13.394  0.3555E+02  0.2994E+03
    -13.381  0.3570E+02  0.2999E+03
    -13.367  0.3587E+02  0.3004E+03
    -13.353  0.3604E+02  0.3009E+03
    -13.339  0.3622E+02  0.3014E+03
    -13.326  0.3640E+02  0.3019E+03
    -13.312  0.3657E+02  0.3024E+03
    -13.298  0.3673E+02  0.3029E+03
    -13.284  0.3687E+02  0.3034E+03
    -13.271  0.3699E+02  0.3039E+03
    -13.257  0.3709E+02  0.3045E+03
    -13.243  0.3715E+02  0.3050E+03
    -13.229  0.3719E+02  0.3055E+03
    -13.215  0.3720E+02  0.3060E+03
    -13.202  0.3717E+02  0.3065E+03
    -13.188  0.3711E+02  0.3070E+03
    -13.174  0.3701E+02  0.3075E+03
    -13.160  0.3689E+02  0.3080E+03
    -13.147  0.3673E+02  0.3085E+03
    -13.133  0.3655E+02  0.3090E+03
    -13.119  0.3634E+02  0.3095E+03
    -13.105  0.3611E+02  0.3100E+03
    -13.092  0.3587E+02  0.3105E+03
    -13.078  0.3562E+02  0.3110E+03
    -13.064  0.3537E+02  0.3115E+03
    -13.050  0.3512E+02  0.3120E+03
    -13.037  0.3488E+02  0.3125E+03
    -13.023  0.3465E+02  0.3129E+03
    -13.009  0.3443E+02  0.3134E+03
    -12.995  0.3424E+02  0.3139E+03
    -12.981  0.3407E+02  0.3144E+03
    -12.968  0.3393E+02  0.3148E+03
    -12.954  0.3381E+02  0.3153E+03
    -12.940  0.3373E+02  0.3158E+03