 137 137   0   0
  0.4879208E+02  0.2033463E-08  0.1643628E-08  0.2000000E-08  0.5000000E-15
  1.000000000000000E-004
  CAR 
 unknown system                          
      3.45433417    -24.12163452 2000     -3.45554078      1.00000000
    -24.122  0.0000E+00  0.0000E+00
    -24.108  0.0000E+00  0.0000E+00
    -24.094  0.0000E+00  0.0000E+00
    -24.080  0.0000E+00  0.0000E+00
    -24.066  0.0000E+00  0.0000E+00
    -24.053  0.0000E+00  0.0000E+00
    -24.039  0.0000E+00  0.0000E+00
    -24.025  0.0000E+00  0.0000E+00
    -24.011  0.0000E+00  0.0000E+00
    -23.997  0.0000E+00  0.0000E+00
    -23.984  0.0000E+00  0.0000E+00
    -23.970  0.0000E+00  0.0000E+00
    -23.956  0.0000E+00  0.0000E+00
    -23.942  0.0000E+00  0.0000E+00
    -23.929  0.0000E+00  0.0000E+00
    -23.915  0.0000E+00  0.0000E+00
    -23.901  0.0000E+00  0.0000E+00
    -23.887  0.0000E+00  0.0000E+00
    -23.873  0.0000E+00  0.0000E+00
    -23.860  0.0000E+00  0.0000E+00
    -23.846  0.0000E+00  0.0000E+00
    -23.832  0.0000E+00  0.0000E+00
    -23.818  0.0000E+00  0.0000E+00
    -23.804  0.0000E+00  0.0000E+00
    -23.791  0.0000E+00  0.0000E+00
    -23.777  0.0000E+00  0.0000E+00
    -23.763  0.0000E+00  0.0000E+00
    -23.749  0.0000E+00  0.0000E+00
    -23.735  0.0000E+00  0.0000E+00
    -23.722  0.0000E+00  0.0000E+00
    -23.708  0.0000E+00  0.0000E+00
    -23.694  0.0000E+00  0.0000E+00
    -23.680  0.0000E+00  0.0000E+00
    -23.666  0.0000E+00  0.0000E+00
    -23.653  0.0000E+00  0.0000E+00
    -23.639  0.0000E+00  0.0000E+00
    -23.625  0.0000E+00  0.0000E+00
    -23.611  0.0000E+00  0.0000E+00
    -23.597  0.0000E+00  0.0000E+00
    -23.584  0.0000E+00  0.0000E+00
    -23.570  0.0000E+00  0.0000E+00
    -23.556  0.0000E+00  0.0000E+00
    -23.542  0.0000E+00  0.0000E+00
    -23.528  0.0000E+00  0.0000E+00
    -23.515  0.0000E+00  0.0000E+00
    -23.501  0.0000E+00  0.0000E+00
    -23.487  0.0000E+00  0.0000E+00
    -23.473  0.0000E+00  0.0000E+00
    -23.459  0.0000E+00  0.0000E+00
    -23.446  0.0000E+00  0.0000E+00
    -23.432  0.0000E+00  0.0000E+00
    -23.418  0.0000E+00  0.0000E+00
    -23.404  0.0000E+00  0.0000E+00
    -23.391  0.0000E+00  0.0000E+00
    -23.377  0.0000E+00  0.0000E+00
    -23.363  0.0000E+00  0.0000E+00
    -23.349  0.0000E+00  0.0000E+00
    -23.335  0.0000E+00  0.0000E+00
    -23.322  0.0000E+00  0.0000E+00
    -23.308  0.0000E+00  0.0000E+00
    -23.294  0.2683E-14  0.3701E-16
    -23.280  0.8048E-14  0.1480E-15
    -23.266  0.6260E-14  0.2344E-15
    -23.253  0.2504E-13  0.5798E-15
    -23.239  0.5544E-13  0.1345E-14
    -23.225  0.1091E-12  0.2850E-14
    -23.211  0.2441E-12  0.6217E-14
    -23.197  0.5178E-12  0.1336E-13
    -23.184  0.1106E-11  0.2862E-13
    -23.170  0.2321E-11  0.6063E-13
    -23.156  0.4819E-11  0.1271E-12
    -23.142  0.9941E-11  0.2642E-12
    -23.128  0.2029E-10  0.5441E-12
    -23.115  0.4104E-10  0.1110E-11
    -23.101  0.8222E-10  0.2244E-11
    -23.087  0.1632E-09  0.4496E-11
    -23.073  0.3209E-09  0.8922E-11
    -23.059  0.6251E-09  0.1755E-10
    -23.046  0.1206E-08  0.3419E-10
    -23.032  0.2306E-08  0.6600E-10
    -23.018  0.4368E-08  0.1263E-09
    -23.004  0.8196E-08  0.2393E-09
    -22.990  0.1523E-07  0.4495E-09
    -22.977  0.2805E-07  0.8365E-09
    -22.963  0.5118E-07  0.1542E-08
    -22.949  0.9250E-07  0.2818E-08
    -22.935  0.1656E-06  0.5103E-08
    -22.921  0.2938E-06  0.9156E-08
    -22.908  0.5163E-06  0.1628E-07
    -22.894  0.8989E-06  0.2868E-07
    -22.880  0.1550E-05  0.5007E-07
    -22.866  0.2649E-05  0.8662E-07
    -22.853  0.4485E-05  0.1485E-06
    -22.839  0.7523E-05  0.2523E-06
    -22.825  0.1250E-04  0.4247E-06
    -22.811  0.2058E-04  0.7086E-06
    -22.797  0.3357E-04  0.1172E-05
    -22.784  0.5424E-04  0.1920E-05
    -22.770  0.8684E-04  0.3118E-05
    -22.756  0.1377E-03  0.5018E-05
    -22.742  0.2165E-03  0.8004E-05
    -22.728  0.3370E-03  0.1265E-04
    -22.715  0.5199E-03  0.1982E-04
    -22.701  0.7945E-03  0.3078E-04
    -22.687  0.1203E-02  0.4738E-04
    -22.673  0.1805E-02  0.7228E-04
    -22.659  0.2683E-02  0.1093E-03
    -22.646  0.3952E-02  0.1638E-03
    -22.632  0.5766E-02  0.2433E-03
    -22.618  0.8337E-02  0.3584E-03
    -22.604  0.1194E-01  0.5231E-03
    -22.590  0.1695E-01  0.7570E-03
    -22.577  0.2384E-01  0.1086E-02
    -22.563  0.3323E-01  0.1544E-02
    -22.549  0.4588E-01  0.2177E-02
    -22.535  0.6277E-01  0.3043E-02
    -22.521  0.8510E-01  0.4217E-02
    -22.508  0.1143E+00  0.5794E-02
    -22.494  0.1522E+00  0.7894E-02
    -22.480  0.2008E+00  0.1066E-01
    -22.466  0.2625E+00  0.1428E-01
    -22.452  0.3400E+00  0.1897E-01
    -22.439  0.4365E+00  0.2500E-01
    -22.425  0.5553E+00  0.3266E-01
    -22.411  0.7002E+00  0.4231E-01
    -22.397  0.8750E+00  0.5438E-01
    -22.383  0.1084E+01  0.6933E-01
    -22.370  0.1330E+01  0.8769E-01
    -22.356  0.1619E+01  0.1100E+00
    -22.342  0.1953E+01  0.1370E+00
    -22.328  0.2335E+01  0.1692E+00
    -22.315  0.2767E+01  0.2073E+00
    -22.301  0.3252E+01  0.2522E+00
    -22.287  0.3790E+01  0.3045E+00
    -22.273  0.4379E+01  0.3649E+00
    -22.259  0.5018E+01  0.4341E+00
    -22.246  0.5703E+01  0.5128E+00
    -22.232  0.6429E+01  0.6015E+00
    -22.218  0.7190E+01  0.7007E+00
    -22.204  0.7979E+01  0.8107E+00
    -22.190  0.8786E+01  0.9319E+00
    -22.177  0.9602E+01  0.1064E+01
    -22.163  0.1042E+02  0.1208E+01
    -22.149  0.1122E+02  0.1363E+01
    -22.135  0.1201E+02  0.1529E+01
    -22.121  0.1276E+02  0.1705E+01
    -22.108  0.1348E+02  0.1891E+01
    -22.094  0.1414E+02  0.2086E+01
    -22.080  0.1476E+02  0.2289E+01
    -22.066  0.1531E+02  0.2500E+01
    -22.052  0.1580E+02  0.2718E+01
    -22.039  0.1623E+02  0.2942E+01
    -22.025  0.1659E+02  0.3171E+01
    -22.011  0.1688E+02  0.3404E+01
    -21.997  0.1711E+02  0.3640E+01
    -21.983  0.1728E+02  0.3879E+01
    -21.970  0.1739E+02  0.4118E+01
    -21.956  0.1744E+02  0.4359E+01
    -21.942  0.1744E+02  0.4600E+01
    -21.928  0.1739E+02  0.4840E+01
    -21.914  0.1731E+02  0.5078E+01
    -21.901  0.1719E+02  0.5315E+01
    -21.887  0.1704E+02  0.5551E+01
    -21.873  0.1687E+02  0.5783E+01
    -21.859  0.1669E+02  0.6014E+01
    -21.845  0.1650E+02  0.6241E+01
    -21.832  0.1631E+02  0.6466E+01
    -21.818  0.1613E+02  0.6689E+01
    -21.804  0.1597E+02  0.6909E+01
    -21.790  0.1583E+02  0.7128E+01
    -21.777  0.1572E+02  0.7344E+01
    -21.763  0.1564E+02  0.7560E+01
    -21.749  0.1561E+02  0.7775E+01
    -21.735  0.1561E+02  0.7991E+01
    -21.721  0.1565E+02  0.8207E+01
    -21.708  0.1573E+02  0.8424E+01
    -21.694  0.1585E+02  0.8642E+01
    -21.680  0.1601E+02  0.8863E+01
    -21.666  0.1619E+02  0.9087E+01
    -21.652  0.1639E+02  0.9313E+01
    -21.639  0.1660E+02  0.9542E+01
    -21.625  0.1681E+02  0.9774E+01
    -21.611  0.1702E+02  0.1001E+02
    -21.597  0.1722E+02  0.1025E+02
    -21.583  0.1740E+02  0.1049E+02
    -21.570  0.1755E+02  0.1073E+02
    -21.556  0.1767E+02  0.1097E+02
    -21.542  0.1776E+02  0.1122E+02
    -21.528  0.1782E+02  0.1146E+02
    -21.514  0.1786E+02  0.1171E+02
    -21.501  0.1786E+02  0.1196E+02
    -21.487  0.1784E+02  0.1220E+02
    -21.473  0.1781E+02  0.1245E+02
    -21.459  0.1778E+02  0.1269E+02
    -21.445  0.1774E+02  0.1294E+02
    -21.432  0.1772E+02  0.1318E+02
    -21.418  0.1771E+02  0.1343E+02
    -21.404  0.1772E+02  0.1367E+02
    -21.390  0.1775E+02  0.1392E+02
    -21.376  0.1782E+02  0.1416E+02
    -21.363  0.1792E+02  0.1441E+02
    -21.349  0.1805E+02  0.1466E+02
    -21.335  0.1821E+02  0.1491E+02
    -21.321  0.1839E+02  0.1516E+02
    -21.307  0.1860E+02  0.1542E+02
    -21.294  0.1882E+02  0.1568E+02
    -21.280  0.1905E+02  0.1594E+02
    -21.266  0.1927E+02  0.1621E+02
    -21.252  0.1950E+02  0.1648E+02
    -21.239  0.1971E+02  0.1675E+02
    -21.225  0.1991E+02  0.1702E+02
    -21.211  0.2008E+02  0.1730E+02
    -21.197  0.2023E+02  0.1758E+02
    -21.183  0.2036E+02  0.1786E+02
    -21.170  0.2046E+02  0.1814E+02
    -21.156  0.2052E+02  0.1842E+02
    -21.142  0.2057E+02  0.1871E+02
    -21.128  0.2059E+02  0.1899E+02
    -21.114  0.2059E+02  0.1928E+02
    -21.101  0.2057E+02  0.1956E+02
    -21.087  0.2054E+02  0.1984E+02
    -21.073  0.2049E+02  0.2013E+02
    -21.059  0.2045E+02  0.2041E+02
    -21.045  0.2039E+02  0.2069E+02
    -21.032  0.2034E+02  0.2097E+02
    -21.018  0.2030E+02  0.2125E+02
    -21.004  0.2026E+02  0.2153E+02
    -20.990  0.2023E+02  0.2181E+02
    -20.976  0.2021E+02  0.2209E+02
    -20.963  0.2020E+02  0.2237E+02
    -20.949  0.2022E+02  0.2265E+02
    -20.935  0.2025E+02  0.2292E+02
    -20.921  0.2030E+02  0.2320E+02
    -20.907  0.2037E+02  0.2349E+02
    -20.894  0.2047E+02  0.2377E+02
    -20.880  0.2059E+02  0.2405E+02
    -20.866  0.2072E+02  0.2434E+02
    -20.852  0.2088E+02  0.2463E+02
    -20.838  0.2106E+02  0.2492E+02
    -20.825  0.2124E+02  0.2521E+02
    -20.811  0.2144E+02  0.2551E+02
    -20.797  0.2165E+02  0.2580E+02
    -20.783  0.2185E+02  0.2611E+02
    -20.769  0.2205E+02  0.2641E+02
    -20.756  0.2224E+02  0.2672E+02
    -20.742  0.2242E+02  0.2703E+02
    -20.728  0.2257E+02  0.2734E+02
    -20.714  0.2270E+02  0.2765E+02
    -20.701  0.2280E+02  0.2796E+02
    -20.687  0.2287E+02  0.2828E+02
    -20.673  0.2290E+02  0.2860E+02
    -20.659  0.2290E+02  0.2891E+02
    -20.645  0.2286E+02  0.2923E+02
    -20.632  0.2278E+02  0.2954E+02
    -20.618  0.2268E+02  0.2985E+02
    -20.604  0.2255E+02  0.3017E+02
    -20.590  0.2239E+02  0.3047E+02
    -20.576  0.2221E+02  0.3078E+02
    -20.563  0.2201E+02  0.3108E+02
    -20.549  0.2181E+02  0.3139E+02
    -20.535  0.2160E+02  0.3168E+02
    -20.521  0.2139E+02  0.3198E+02
    -20.507  0.2119E+02  0.3227E+02
    -20.494  0.2099E+02  0.3256E+02
    -20.480  0.2082E+02  0.3285E+02
    -20.466  0.2066E+02  0.3313E+02
    -20.452  0.2052E+02  0.3342E+02
    -20.438  0.2040E+02  0.3370E+02
    -20.425  0.2031E+02  0.3398E+02
    -20.411  0.2024E+02  0.3426E+02
    -20.397  0.2020E+02  0.3453E+02
    -20.383  0.2017E+02  0.3481E+02
    -20.369  0.2017E+02  0.3509E+02
    -20.356  0.2018E+02  0.3537E+02
    -20.342  0.2020E+02  0.3565E+02
    -20.328  0.2024E+02  0.3593E+02
    -20.314  0.2028E+02  0.3621E+02
    -20.300  0.2033E+02  0.3649E+02
    -20.287  0.2038E+02  0.3677E+02
    -20.273  0.2044E+02  0.3705E+02
    -20.259  0.2050E+02  0.3733E+02
    -20.245  0.2055E+02  0.3762E+02
    -20.231  0.2061E+02  0.3790E+02
    -20.218  0.2067E+02  0.3819E+02
    -20.204  0.2073E+02  0.3847E+02
    -20.190  0.2078E+02  0.3876E+02
    -20.176  0.2084E+02  0.3905E+02
    -20.163  0.2089E+02  0.3933E+02
    -20.149  0.2094E+02  0.3962E+02
    -20.135  0.2099E+02  0.3991E+02
    -20.121  0.2104E+02  0.4020E+02
    -20.107  0.2108E+02  0.4049E+02
    -20.094  0.2111E+02  0.4079E+02
    -20.080  0.2113E+02  0.4108E+02
    -20.066  0.2115E+02  0.4137E+02
    -20.052  0.2116E+02  0.4166E+02
    -20.038  0.2116E+02  0.4195E+02
    -20.025  0.2115E+02  0.4224E+02
    -20.011  0.2113E+02  0.4254E+02
    -19.997  0.2111E+02  0.4283E+02
    -19.983  0.2109E+02  0.4312E+02
    -19.969  0.2107E+02  0.4341E+02
    -19.956  0.2105E+02  0.4370E+02
    -19.942  0.2103E+02  0.4399E+02
    -19.928  0.2102E+02  0.4428E+02
    -19.914  0.2101E+02  0.4457E+02
    -19.900  0.2101E+02  0.4486E+02
    -19.887  0.2102E+02  0.4515E+02
    -19.873  0.2103E+02  0.4544E+02
    -19.859  0.2105E+02  0.4573E+02
    -19.845  0.2107E+02  0.4602E+02
    -19.831  0.2108E+02  0.4631E+02
    -19.818  0.2110E+02  0.4660E+02
    -19.804  0.2110E+02  0.4689E+02
    -19.790  0.2109E+02  0.4718E+02
    -19.776  0.2106E+02  0.4747E+02
    -19.762  0.2101E+02  0.4776E+02
    -19.749  0.2095E+02  0.4805E+02
    -19.735  0.2086E+02  0.4834E+02
    -19.721  0.2075E+02  0.4863E+02
    -19.707  0.2063E+02  0.4891E+02
    -19.693  0.2049E+02  0.4919E+02
    -19.680  0.2034E+02  0.4947E+02
    -19.666  0.2018E+02  0.4975E+02
    -19.652  0.2001E+02  0.5003E+02
    -19.638  0.1986E+02  0.5030E+02
    -19.625  0.1971E+02  0.5057E+02
    -19.611  0.1958E+02  0.5084E+02
    -19.597  0.1947E+02  0.5111E+02
    -19.583  0.1938E+02  0.5138E+02
    -19.569  0.1933E+02  0.5165E+02
    -19.556  0.1931E+02  0.5191E+02
    -19.542  0.1932E+02  0.5218E+02
    -19.528  0.1937E+02  0.5245E+02
    -19.514  0.1946E+02  0.5272E+02
    -19.500  0.1958E+02  0.5299E+02
    -19.487  0.1974E+02  0.5326E+02
    -19.473  0.1992E+02  0.5353E+02
    -19.459  0.2014E+02  0.5381E+02
    -19.445  0.2038E+02  0.5409E+02
    -19.431  0.2063E+02  0.5438E+02
    -19.418  0.2090E+02  0.5467E+02
    -19.404  0.2118E+02  0.5496E+02
    -19.390  0.2147E+02  0.5525E+02
    -19.376  0.2175E+02  0.5555E+02
    -19.362  0.2203E+02  0.5586E+02
    -19.349  0.2231E+02  0.5617E+02
    -19.335  0.2257E+02  0.5648E+02
    -19.321  0.2281E+02  0.5679E+02
    -19.307  0.2303E+02  0.5711E+02
    -19.293  0.2324E+02  0.5743E+02
    -19.280  0.2342E+02  0.5775E+02
    -19.266  0.2357E+02  0.5808E+02
    -19.252  0.2369E+02  0.5840E+02
    -19.238  0.2379E+02  0.5873E+02
    -19.224  0.2386E+02  0.5906E+02
    -19.211  0.2391E+02  0.5939E+02
    -19.197  0.2393E+02  0.5972E+02
    -19.183  0.2392E+02  0.6005E+02
    -19.169  0.2390E+02  0.6038E+02
    -19.155  0.2385E+02  0.6071E+02
    -19.142  0.2380E+02  0.6104E+02
    -19.128  0.2373E+02  0.6137E+02
    -19.114  0.2365E+02  0.6169E+02
    -19.100  0.2357E+02  0.6202E+02
    -19.087  0.2348E+02  0.6234E+02
    -19.073  0.2340E+02  0.6266E+02
    -19.059  0.2332E+02  0.6299E+02
    -19.045  0.2324E+02  0.6331E+02
    -19.031  0.2317E+02  0.6363E+02
    -19.018  0.2311E+02  0.6394E+02
    -19.004  0.2305E+02  0.6426E+02
    -18.990  0.2301E+02  0.6458E+02
    -18.976  0.2296E+02  0.6490E+02
    -18.962  0.2293E+02  0.6521E+02
    -18.949  0.2289E+02  0.6553E+02
    -18.935  0.2285E+02  0.6584E+02
    -18.921  0.2282E+02  0.6616E+02
    -18.907  0.2278E+02  0.6647E+02
    -18.893  0.2274E+02  0.6679E+02
    -18.880  0.2269E+02  0.6710E+02
    -18.866  0.2263E+02  0.6741E+02
    -18.852  0.2258E+02  0.6772E+02
    -18.838  0.2251E+02  0.6803E+02
    -18.824  0.2245E+02  0.6834E+02
    -18.811  0.2238E+02  0.6865E+02
    -18.797  0.2231E+02  0.6896E+02
    -18.783  0.2224E+02  0.6927E+02
    -18.769  0.2218E+02  0.6957E+02
    -18.755  0.2212E+02  0.6988E+02
    -18.742  0.2207E+02  0.7018E+02
    -18.728  0.2203E+02  0.7049E+02
    -18.714  0.2200E+02  0.7079E+02
    -18.700  0.2198E+02  0.7109E+02
    -18.686  0.2197E+02  0.7140E+02
    -18.673  0.2197E+02  0.7170E+02
    -18.659  0.2198E+02  0.7200E+02
    -18.645  0.2201E+02  0.7231E+02
    -18.631  0.2204E+02  0.7261E+02
    -18.617  0.2208E+02  0.7291E+02
    -18.604  0.2213E+02  0.7322E+02
    -18.590  0.2218E+02  0.7353E+02
    -18.576  0.2223E+02  0.7383E+02
    -18.562  0.2229E+02  0.7414E+02
    -18.549  0.2235E+02  0.7445E+02
    -18.535  0.2241E+02  0.7476E+02
    -18.521  0.2248E+02  0.7507E+02
    -18.507  0.2254E+02  0.7538E+02
    -18.493  0.2259E+02  0.7569E+02
    -18.480  0.2265E+02  0.7600E+02
    -18.466  0.2271E+02  0.7632E+02
    -18.452  0.2276E+02  0.7663E+02
    -18.438  0.2281E+02  0.7694E+02
    -18.424  0.2285E+02  0.7726E+02
    -18.411  0.2290E+02  0.7758E+02
    -18.397  0.2294E+02  0.7789E+02
    -18.383  0.2298E+02  0.7821E+02
    -18.369  0.2302E+02  0.7853E+02
    -18.355  0.2305E+02  0.7884E+02
    -18.342  0.2308E+02  0.7916E+02
    -18.328  0.2311E+02  0.7948E+02
    -18.314  0.2314E+02  0.7980E+02
    -18.300  0.2316E+02  0.8012E+02
    -18.286  0.2318E+02  0.8044E+02
    -18.273  0.2319E+02  0.8076E+02
    -18.259  0.2320E+02  0.8108E+02
    -18.245  0.2319E+02  0.8140E+02
    -18.231  0.2318E+02  0.8172E+02
    -18.217  0.2316E+02  0.8204E+02
    -18.204  0.2313E+02  0.8236E+02
    -18.190  0.2309E+02  0.8268E+02
    -18.176  0.2303E+02  0.8300E+02
    -18.162  0.2296E+02  0.8331E+02
    -18.148  0.2288E+02  0.8363E+02
    -18.135  0.2279E+02  0.8394E+02
    -18.121  0.2268E+02  0.8425E+02
    -18.107  0.2257E+02  0.8457E+02
    -18.093  0.2245E+02  0.8488E+02
    -18.079  0.2234E+02  0.8518E+02
    -18.066  0.2222E+02  0.8549E+02
    -18.052  0.2211E+02  0.8580E+02
    -18.038  0.2202E+02  0.8610E+02
    -18.024  0.2194E+02  0.8640E+02
    -18.011  0.2188E+02  0.8670E+02
    -17.997  0.2185E+02  0.8701E+02
    -17.983  0.2186E+02  0.8731E+02
    -17.969  0.2190E+02  0.8761E+02
    -17.955  0.2198E+02  0.8791E+02
    -17.942  0.2209E+02  0.8822E+02
    -17.928  0.2225E+02  0.8852E+02
    -17.914  0.2245E+02  0.8883E+02
    -17.900  0.2269E+02  0.8915E+02
    -17.886  0.2297E+02  0.8946E+02
    -17.873  0.2327E+02  0.8978E+02
    -17.859  0.2361E+02  0.9011E+02
    -17.845  0.2397E+02  0.9044E+02
    -17.831  0.2435E+02  0.9078E+02
    -17.817  0.2474E+02  0.9112E+02
    -17.804  0.2514E+02  0.9146E+02
    -17.790  0.2554E+02  0.9182E+02
    -17.776  0.2593E+02  0.9217E+02
    -17.762  0.2631E+02  0.9254E+02
    -17.748  0.2668E+02  0.9291E+02
    -17.735  0.2702E+02  0.9328E+02
    -17.721  0.2733E+02  0.9366E+02
    -17.707  0.2762E+02  0.9404E+02
    -17.693  0.2787E+02  0.9442E+02
    -17.679  0.2809E+02  0.9481E+02
    -17.666  0.2827E+02  0.9520E+02
    -17.652  0.2841E+02  0.9559E+02
    -17.638  0.2851E+02  0.9598E+02
    -17.624  0.2857E+02  0.9638E+02
    -17.610  0.2859E+02  0.9677E+02
    -17.597  0.2857E+02  0.9717E+02
    -17.583  0.2851E+02  0.9756E+02
    -17.569  0.2842E+02  0.9795E+02
    -17.555  0.2829E+02  0.9834E+02
    -17.541  0.2814E+02  0.9873E+02
    -17.528  0.2795E+02  0.9912E+02
    -17.514  0.2775E+02  0.9950E+02
    -17.500  0.2752E+02  0.9988E+02
    -17.486  0.2729E+02  0.1003E+03
    -17.473  0.2704E+02  0.1006E+03
    -17.459  0.2679E+02  0.1010E+03
    -17.445  0.2654E+02  0.1014E+03
    -17.431  0.2629E+02  0.1017E+03
    -17.417  0.2605E+02  0.1021E+03
    -17.404  0.2582E+02  0.1024E+03
    -17.390  0.2561E+02  0.1028E+03
    -17.376  0.2541E+02  0.1031E+03
    -17.362  0.2523E+02  0.1035E+03
    -17.348  0.2507E+02  0.1038E+03
    -17.335  0.2493E+02  0.1042E+03
    -17.321  0.2482E+02  0.1045E+03
    -17.307  0.2472E+02  0.1049E+03
    -17.293  0.2464E+02  0.1052E+03
    -17.279  0.2459E+02  0.1055E+03
    -17.266  0.2455E+02  0.1059E+03
    -17.252  0.2452E+02  0.1062E+03
    -17.238  0.2451E+02  0.1066E+03
    -17.224  0.2451E+02  0.1069E+03
    -17.210  0.2452E+02  0.1072E+03
    -17.197  0.2453E+02  0.1076E+03
    -17.183  0.2455E+02  0.1079E+03
    -17.169  0.2456E+02  0.1083E+03
    -17.155  0.2457E+02  0.1086E+03
    -17.141  0.2457E+02  0.1089E+03
    -17.128  0.2456E+02  0.1093E+03
    -17.114  0.2454E+02  0.1096E+03
    -17.100  0.2449E+02  0.1099E+03
    -17.086  0.2442E+02  0.1103E+03
    -17.072  0.2433E+02  0.1106E+03
    -17.059  0.2421E+02  0.1110E+03
    -17.045  0.2406E+02  0.1113E+03
    -17.031  0.2389E+02  0.1116E+03
    -17.017  0.2369E+02  0.1119E+03
    -17.003  0.2347E+02  0.1123E+03
    -16.990  0.2322E+02  0.1126E+03
    -16.976  0.2296E+02  0.1129E+03
    -16.962  0.2268E+02  0.1132E+03
    -16.948  0.2239E+02  0.1135E+03
    -16.935  0.2210E+02  0.1138E+03
    -16.921  0.2181E+02  0.1141E+03
    -16.907  0.2152E+02  0.1144E+03
    -16.893  0.2125E+02  0.1147E+03
    -16.879  0.2098E+02  0.1150E+03
    -16.866  0.2073E+02  0.1153E+03
    -16.852  0.2050E+02  0.1156E+03
    -16.838  0.2029E+02  0.1159E+03
    -16.824  0.2010E+02  0.1161E+03
    -16.810  0.1994E+02  0.1164E+03
    -16.797  0.1979E+02  0.1167E+03
    -16.783  0.1967E+02  0.1170E+03
    -16.769  0.1956E+02  0.1172E+03
    -16.755  0.1947E+02  0.1175E+03
    -16.741  0.1940E+02  0.1178E+03
    -16.728  0.1935E+02  0.1180E+03
    -16.714  0.1931E+02  0.1183E+03
    -16.700  0.1928E+02  0.1186E+03
    -16.686  0.1926E+02  0.1188E+03
    -16.672  0.1925E+02  0.1191E+03
    -16.659  0.1926E+02  0.1194E+03
    -16.645  0.1927E+02  0.1196E+03
    -16.631  0.1928E+02  0.1199E+03
    -16.617  0.1930E+02  0.1202E+03
    -16.603  0.1932E+02  0.1204E+03
    -16.590  0.1934E+02  0.1207E+03
    -16.576  0.1935E+02  0.1210E+03
    -16.562  0.1936E+02  0.1212E+03
    -16.548  0.1935E+02  0.1215E+03
    -16.534  0.1933E+02  0.1218E+03
    -16.521  0.1929E+02  0.1220E+03
    -16.507  0.1922E+02  0.1223E+03
    -16.493  0.1914E+02  0.1226E+03
    -16.479  0.1903E+02  0.1228E+03
    -16.465  0.1890E+02  0.1231E+03
    -16.452  0.1874E+02  0.1233E+03
    -16.438  0.1857E+02  0.1236E+03
    -16.424  0.1838E+02  0.1238E+03
    -16.410  0.1818E+02  0.1241E+03
    -16.397  0.1798E+02  0.1243E+03
    -16.383  0.1778E+02  0.1246E+03
    -16.369  0.1760E+02  0.1248E+03
    -16.355  0.1743E+02  0.1251E+03
    -16.341  0.1730E+02  0.1253E+03
    -16.328  0.1720E+02  0.1255E+03
    -16.314  0.1714E+02  0.1258E+03
    -16.300  0.1713E+02  0.1260E+03
    -16.286  0.1717E+02  0.1263E+03
    -16.272  0.1726E+02  0.1265E+03
    -16.259  0.1740E+02  0.1267E+03
    -16.245  0.1759E+02  0.1270E+03
    -16.231  0.1782E+02  0.1272E+03
    -16.217  0.1809E+02  0.1275E+03
    -16.203  0.1839E+02  0.1277E+03
    -16.190  0.1872E+02  0.1280E+03
    -16.176  0.1905E+02  0.1282E+03
    -16.162  0.1940E+02  0.1285E+03
    -16.148  0.1973E+02  0.1288E+03
    -16.134  0.2005E+02  0.1291E+03
    -16.121  0.2035E+02  0.1293E+03
    -16.107  0.2063E+02  0.1296E+03
    -16.093  0.2087E+02  0.1299E+03
    -16.079  0.2107E+02  0.1302E+03
    -16.065  0.2124E+02  0.1305E+03
    -16.052  0.2137E+02  0.1308E+03
    -16.038  0.2145E+02  0.1311E+03
    -16.024  0.2151E+02  0.1314E+03
    -16.010  0.2153E+02  0.1317E+03
    -15.996  0.2152E+02  0.1320E+03
    -15.983  0.2149E+02  0.1323E+03
    -15.969  0.2144E+02  0.1326E+03
    -15.955  0.2138E+02  0.1329E+03
    -15.941  0.2131E+02  0.1332E+03
    -15.927  0.2124E+02  0.1335E+03
    -15.914  0.2116E+02  0.1337E+03
    -15.900  0.2110E+02  0.1340E+03
    -15.886  0.2104E+02  0.1343E+03
    -15.872  0.2099E+02  0.1346E+03
    -15.859  0.2096E+02  0.1349E+03
    -15.845  0.2095E+02  0.1352E+03
    -15.831  0.2095E+02  0.1355E+03
    -15.817  0.2097E+02  0.1358E+03
    -15.803  0.2101E+02  0.1361E+03
    -15.790  0.2107E+02  0.1364E+03
    -15.776  0.2115E+02  0.1366E+03
    -15.762  0.2124E+02  0.1369E+03
    -15.748  0.2135E+02  0.1372E+03
    -15.734  0.2146E+02  0.1375E+03
    -15.721  0.2159E+02  0.1378E+03
    -15.707  0.2173E+02  0.1381E+03
    -15.693  0.2187E+02  0.1384E+03
    -15.679  0.2202E+02  0.1387E+03
    -15.665  0.2216E+02  0.1390E+03
    -15.652  0.2231E+02  0.1393E+03
    -15.638  0.2246E+02  0.1397E+03
    -15.624  0.2260E+02  0.1400E+03
    -15.610  0.2274E+02  0.1403E+03
    -15.596  0.2288E+02  0.1406E+03
    -15.583  0.2301E+02  0.1409E+03
    -15.569  0.2314E+02  0.1412E+03
    -15.555  0.2327E+02  0.1416E+03
    -15.541  0.2339E+02  0.1419E+03
    -15.527  0.2351E+02  0.1422E+03
    -15.514  0.2363E+02  0.1425E+03
    -15.500  0.2375E+02  0.1429E+03
    -15.486  0.2386E+02  0.1432E+03
    -15.472  0.2397E+02  0.1435E+03
    -15.458  0.2407E+02  0.1438E+03
    -15.445  0.2417E+02  0.1442E+03
    -15.431  0.2426E+02  0.1445E+03
    -15.417  0.2435E+02  0.1449E+03
    -15.403  0.2443E+02  0.1452E+03
    -15.389  0.2450E+02  0.1455E+03
    -15.376  0.2455E+02  0.1459E+03
    -15.362  0.2460E+02  0.1462E+03
    -15.348  0.2462E+02  0.1465E+03
    -15.334  0.2463E+02  0.1469E+03
    -15.320  0.2463E+02  0.1472E+03
    -15.307  0.2460E+02  0.1476E+03
    -15.293  0.2456E+02  0.1479E+03
    -15.279  0.2449E+02  0.1482E+03
    -15.265  0.2441E+02  0.1486E+03
    -15.252  0.2431E+02  0.1489E+03
    -15.238  0.2419E+02  0.1492E+03
    -15.224  0.2406E+02  0.1496E+03
    -15.210  0.2391E+02  0.1499E+03
    -15.196  0.2375E+02  0.1502E+03
    -15.183  0.2358E+02  0.1506E+03
    -15.169  0.2340E+02  0.1509E+03
    -15.155  0.2322E+02  0.1512E+03
    -15.141  0.2303E+02  0.1515E+03
    -15.127  0.2284E+02  0.1518E+03
    -15.114  0.2266E+02  0.1521E+03
    -15.100  0.2247E+02  0.1525E+03
    -15.086  0.2229E+02  0.1528E+03
    -15.072  0.2211E+02  0.1531E+03
    -15.058  0.2194E+02  0.1534E+03
    -15.045  0.2178E+02  0.1537E+03
    -15.031  0.2162E+02  0.1540E+03
    -15.017  0.2148E+02  0.1543E+03
    -15.003  0.2135E+02  0.1546E+03
    -14.989  0.2123E+02  0.1549E+03
    -14.976  0.2112E+02  0.1551E+03
    -14.962  0.2103E+02  0.1554E+03
    -14.948  0.2096E+02  0.1557E+03
    -14.934  0.2090E+02  0.1560E+03
    -14.920  0.2087E+02  0.1563E+03
    -14.907  0.2086E+02  0.1566E+03
    -14.893  0.2087E+02  0.1569E+03
    -14.879  0.2091E+02  0.1572E+03
    -14.865  0.2098E+02  0.1575E+03
    -14.851  0.2108E+02  0.1577E+03
    -14.838  0.2120E+02  0.1580E+03
    -14.824  0.2135E+02  0.1583E+03
    -14.810  0.2152E+02  0.1586E+03
    -14.796  0.2172E+02  0.1589E+03
    -14.782  0.2193E+02  0.1592E+03
    -14.769  0.2216E+02  0.1595E+03
    -14.755  0.2240E+02  0.1598E+03
    -14.741  0.2265E+02  0.1602E+03
    -14.727  0.2290E+02  0.1605E+03
    -14.714  0.2314E+02  0.1608E+03
    -14.700  0.2337E+02  0.1611E+03
    -14.686  0.2358E+02  0.1614E+03
    -14.672  0.2378E+02  0.1618E+03
    -14.658  0.2395E+02  0.1621E+03
    -14.645  0.2409E+02  0.1624E+03
    -14.631  0.2420E+02  0.1628E+03
    -14.617  0.2429E+02  0.1631E+03
    -14.603  0.2434E+02  0.1634E+03
    -14.589  0.2436E+02  0.1638E+03
    -14.576  0.2436E+02  0.1641E+03
    -14.562  0.2432E+02  0.1644E+03
    -14.548  0.2426E+02  0.1648E+03
    -14.534  0.2418E+02  0.1651E+03
    -14.520  0.2408E+02  0.1654E+03
    -14.507  0.2397E+02  0.1658E+03
    -14.493  0.2384E+02  0.1661E+03
    -14.479  0.2370E+02  0.1664E+03
    -14.465  0.2356E+02  0.1668E+03
    -14.451  0.2342E+02  0.1671E+03
    -14.438  0.2327E+02  0.1674E+03
    -14.424  0.2313E+02  0.1677E+03
    -14.410  0.2299E+02  0.1680E+03
    -14.396  0.2286E+02  0.1684E+03
    -14.382  0.2275E+02  0.1687E+03
    -14.369  0.2264E+02  0.1690E+03
    -14.355  0.2256E+02  0.1693E+03
    -14.341  0.2250E+02  0.1696E+03
    -14.327  0.2245E+02  0.1699E+03
    -14.313  0.2244E+02  0.1702E+03
    -14.300  0.2244E+02  0.1705E+03
    -14.286  0.2248E+02  0.1708E+03
    -14.272  0.2254E+02  0.1712E+03
    -14.258  0.2264E+02  0.1715E+03
    -14.244  0.2275E+02  0.1718E+03
    -14.231  0.2289E+02  0.1721E+03
    -14.217  0.2306E+02  0.1724E+03
    -14.203  0.2323E+02  0.1727E+03
    -14.189  0.2343E+02  0.1731E+03
    -14.176  0.2363E+02  0.1734E+03
    -14.162  0.2383E+02  0.1737E+03
    -14.148  0.2403E+02  0.1740E+03
    -14.134  0.2423E+02  0.1744E+03
    -14.120  0.2441E+02  0.1747E+03
    -14.107  0.2458E+02  0.1751E+03
    -14.093  0.2473E+02  0.1754E+03
    -14.079  0.2486E+02  0.1757E+03
    -14.065  0.2496E+02  0.1761E+03
    -14.051  0.2504E+02  0.1764E+03
    -14.038  0.2509E+02  0.1768E+03
    -14.024  0.2512E+02  0.1771E+03
    -14.010  0.2512E+02  0.1775E+03
    -13.996  0.2510E+02  0.1778E+03
    -13.982  0.2506E+02  0.1782E+03
    -13.969  0.2500E+02  0.1785E+03
    -13.955  0.2493E+02  0.1788E+03
    -13.941  0.2484E+02  0.1792E+03
    -13.927  0.2474E+02  0.1795E+03
    -13.913  0.2463E+02  0.1799E+03
    -13.900  0.2452E+02  0.1802E+03
    -13.886  0.2440E+02  0.1805E+03
    -13.872  0.2427E+02  0.1809E+03
    -13.858  0.2414E+02  0.1812E+03
    -13.844  0.2401E+02  0.1815E+03
    -13.831  0.2388E+02  0.1819E+03
    -13.817  0.2375E+02  0.1822E+03
    -13.803  0.2361E+02  0.1825E+03
    -13.789  0.2348E+02  0.1828E+03
    -13.775  0.2336E+02  0.1832E+03
    -13.762  0.2323E+02  0.1835E+03
    -13.748  0.2312E+02  0.1838E+03
    -13.734  0.2300E+02  0.1841E+03
    -13.720  0.2290E+02  0.1844E+03
    -13.706  0.2281E+02  0.1848E+03
    -13.693  0.2272E+02  0.1851E+03
    -13.679  0.2265E+02  0.1854E+03
    -13.665  0.2258E+02  0.1857E+03
    -13.651  0.2253E+02  0.1860E+03
    -13.638  0.2249E+02  0.1863E+03
    -13.624  0.2246E+02  0.1866E+03
    -13.610  0.2244E+02  0.1869E+03
    -13.596  0.2243E+02  0.1872E+03
    -13.582  0.2243E+02  0.1876E+03
    -13.569  0.2243E+02  0.1879E+03
    -13.555  0.2244E+02  0.1882E+03
    -13.541  0.2244E+02  0.1885E+03
    -13.527  0.2245E+02  0.1888E+03
    -13.513  0.2247E+02  0.1891E+03
    -13.500  0.2248E+02  0.1894E+03
    -13.486  0.2249E+02  0.1897E+03
    -13.472  0.2249E+02  0.1900E+03
    -13.458  0.2250E+02  0.1903E+03
    -13.444  0.2251E+02  0.1907E+03
    -13.431  0.2253E+02  0.1910E+03
    -13.417  0.2254E+02  0.1913E+03
    -13.403  0.2256E+02  0.1916E+03
    -13.389  0.2258E+02  0.1919E+03
    -13.375  0.2261E+02  0.1922E+03
    -13.362  0.2265E+02  0.1925E+03
    -13.348  0.2270E+02  0.1928E+03
    -13.334  0.2276E+02  0.1932E+03
    -13.320  0.2282E+02  0.1935E+03
    -13.306  0.2290E+02  0.1938E+03
    -13.293  0.2298E+02  0.1941E+03
    -13.279  0.2307E+02  0.1944E+03
    -13.265  0.2317E+02  0.1947E+03
    -13.251  0.2327E+02  0.1951E+03
    -13.237  0.2338E+02  0.1954E+03
    -13.224  0.2349E+02  0.1957E+03
    -13.210  0.2360E+02  0.1960E+03
    -13.196  0.2371E+02  0.1964E+03
    -13.182  0.2382E+02  0.1967E+03
    -13.168  0.2392E+02  0.1970E+03
    -13.155  0.2402E+02  0.1973E+03
    -13.141  0.2411E+02  0.1977E+03
    -13.127  0.2420E+02  0.1980E+03
    -13.113  0.2428E+02  0.1983E+03
    -13.100  0.2435E+02  0.1987E+03
    -13.086  0.2441E+02  0.1990E+03
    -13.072  0.2447E+02  0.1994E+03
    -13.058  0.2451E+02  0.1997E+03
    -13.044  0.2455E+02  0.2000E+03
    -13.031  0.2458E+02  0.2004E+03
    -13.017  0.2460E+02  0.2007E+03
    -13.003  0.2462E+02  0.2011E+03
    -12.989  0.2463E+02  0.2014E+03
    -12.975  0.2464E+02  0.2017E+03
    -12.962  0.2464E+02  0.2021E+03
    -12.948  0.2463E+02  0.2024E+03
    -12.934  0.2462E+02  0.2028E+03
    -12.920  0.2461E+02  0.2031E+03
    -12.906  0.2459E+02  0.2034E+03
    -12.893  0.2456E+02  0.2038E+03
    -12.879  0.2453E+02  0.2041E+03
    -12.865  0.2448E+02  0.2044E+03
    -12.851  0.2443E+02  0.2048E+03
    -12.837  0.2437E+02  0.2051E+03
    -12.824  0.2430E+02  0.2055E+03
    -12.810  0.2422E+02  0.2058E+03
    -12.796  0.2413E+02  0.2061E+03
    -12.782  0.2403E+02  0.2065E+03
    -12.768  0.2393E+02  0.2068E+03
    -12.755  0.2383E+02  0.2071E+03
    -12.741  0.2373E+02  0.2074E+03