 135 135   0   0
  0.5039999E+02  0.2051556E-08  0.1658253E-08  0.2000000E-08  0.5000000E-15
  1.000000000000000E-004
  CAR 
 unknown system                          
      3.33109934    -24.49637303 2000     -3.75373277      1.00000000
    -24.496  0.0000E+00  0.0000E+00
    -24.482  0.0000E+00  0.0000E+00
    -24.469  0.0000E+00  0.0000E+00
    -24.455  0.0000E+00  0.0000E+00
    -24.441  0.0000E+00  0.0000E+00
    -24.427  0.0000E+00  0.0000E+00
    -24.413  0.0000E+00  0.0000E+00
    -24.399  0.0000E+00  0.0000E+00
    -24.385  0.0000E+00  0.0000E+00
    -24.371  0.0000E+00  0.0000E+00
    -24.357  0.0000E+00  0.0000E+00
    -24.343  0.0000E+00  0.0000E+00
    -24.329  0.0000E+00  0.0000E+00
    -24.315  0.0000E+00  0.0000E+00
    -24.301  0.0000E+00  0.0000E+00
    -24.288  0.0000E+00  0.0000E+00
    -24.274  0.0000E+00  0.0000E+00
    -24.260  0.0000E+00  0.0000E+00
    -24.246  0.0000E+00  0.0000E+00
    -24.232  0.0000E+00  0.0000E+00
    -24.218  0.0000E+00  0.0000E+00
    -24.204  0.0000E+00  0.0000E+00
    -24.190  0.0000E+00  0.0000E+00
    -24.176  0.0000E+00  0.0000E+00
    -24.162  0.0000E+00  0.0000E+00
    -24.148  0.0000E+00  0.0000E+00
    -24.134  0.0000E+00  0.0000E+00
    -24.121  0.0000E+00  0.0000E+00
    -24.107  0.0000E+00  0.0000E+00
    -24.093  0.0000E+00  0.0000E+00
    -24.079  0.0000E+00  0.0000E+00
    -24.065  0.0000E+00  0.0000E+00
    -24.051  0.0000E+00  0.0000E+00
    -24.037  0.0000E+00  0.0000E+00
    -24.023  0.0000E+00  0.0000E+00
    -24.009  0.0000E+00  0.0000E+00
    -23.995  0.0000E+00  0.0000E+00
    -23.981  0.0000E+00  0.0000E+00
    -23.967  0.0000E+00  0.0000E+00
    -23.953  0.0000E+00  0.0000E+00
    -23.940  0.0000E+00  0.0000E+00
    -23.926  0.0000E+00  0.0000E+00
    -23.912  0.0000E+00  0.0000E+00
    -23.898  0.0000E+00  0.0000E+00
    -23.884  0.0000E+00  0.0000E+00
    -23.870  0.0000E+00  0.0000E+00
    -23.856  0.0000E+00  0.0000E+00
    -23.842  0.0000E+00  0.0000E+00
    -23.828  0.0000E+00  0.0000E+00
    -23.814  0.0000E+00  0.0000E+00
    -23.800  0.0000E+00  0.0000E+00
    -23.786  0.0000E+00  0.0000E+00
    -23.772  0.0000E+00  0.0000E+00
    -23.759  0.0000E+00  0.0000E+00
    -23.745  0.0000E+00  0.0000E+00
    -23.731  0.0000E+00  0.0000E+00
    -23.717  0.0000E+00  0.0000E+00
    -23.703  0.0000E+00  0.0000E+00
    -23.689  0.0000E+00  0.0000E+00
    -23.675  0.7975E-14  0.1110E-15
    -23.661  0.8861E-15  0.1234E-15
    -23.647  0.1595E-13  0.3454E-15
    -23.633  0.3367E-13  0.8142E-15
    -23.619  0.6912E-13  0.1776E-14
    -23.605  0.1524E-12  0.3898E-14
    -23.592  0.3385E-12  0.8610E-14
    -23.578  0.7249E-12  0.1870E-13
    -23.564  0.1529E-11  0.3998E-13
    -23.550  0.3231E-11  0.8496E-13
    -23.536  0.6723E-11  0.1785E-12
    -23.522  0.1389E-10  0.3719E-12
    -23.508  0.2840E-10  0.7673E-12
    -23.494  0.5752E-10  0.1568E-11
    -23.480  0.1154E-09  0.3174E-11
    -23.466  0.2292E-09  0.6364E-11
    -23.452  0.4509E-09  0.1264E-10
    -23.438  0.8786E-09  0.2487E-10
    -23.424  0.1696E-08  0.4848E-10
    -23.411  0.3241E-08  0.9359E-10
    -23.397  0.6136E-08  0.1790E-09
    -23.383  0.1150E-07  0.3391E-09
    -23.369  0.2136E-07  0.6365E-09
    -23.355  0.3929E-07  0.1183E-08
    -23.341  0.7157E-07  0.2180E-08
    -23.327  0.1291E-06  0.3978E-08
    -23.313  0.2308E-06  0.7190E-08
    -23.299  0.4084E-06  0.1288E-07
    -23.285  0.7160E-06  0.2284E-07
    -23.271  0.1243E-05  0.4015E-07
    -23.257  0.2138E-05  0.6991E-07
    -23.244  0.3641E-05  0.1206E-06
    -23.230  0.6144E-05  0.2061E-06
    -23.216  0.1027E-04  0.3490E-06
    -23.202  0.1699E-04  0.5856E-06
    -23.188  0.2786E-04  0.9733E-06
    -23.174  0.4523E-04  0.1603E-05
    -23.160  0.7275E-04  0.2616E-05
    -23.146  0.1159E-03  0.4229E-05
    -23.132  0.1829E-03  0.6775E-05
    -23.118  0.2859E-03  0.1076E-04
    -23.104  0.4427E-03  0.1692E-04
    -23.090  0.6789E-03  0.2637E-04
    -23.076  0.1031E-02  0.4073E-04
    -23.063  0.1552E-02  0.6233E-04
    -23.049  0.2314E-02  0.9454E-04
    -23.035  0.3417E-02  0.1421E-03
    -23.021  0.4998E-02  0.2117E-03
    -23.007  0.7243E-02  0.3125E-03
    -22.993  0.1040E-01  0.4572E-03
    -22.979  0.1479E-01  0.6631E-03
    -22.965  0.2083E-01  0.9530E-03
    -22.951  0.2907E-01  0.1358E-02
    -22.937  0.4020E-01  0.1917E-02
    -22.923  0.5506E-01  0.2684E-02
    -22.909  0.7473E-01  0.3724E-02
    -22.895  0.1005E+00  0.5123E-02
    -22.882  0.1338E+00  0.6986E-02
    -22.868  0.1767E+00  0.9445E-02
    -22.854  0.2310E+00  0.1266E-01
    -22.840  0.2993E+00  0.1683E-01
    -22.826  0.3843E+00  0.2218E-01
    -22.812  0.4888E+00  0.2898E-01
    -22.798  0.6162E+00  0.3756E-01
    -22.784  0.7696E+00  0.4827E-01
    -22.770  0.9525E+00  0.6153E-01
    -22.756  0.1168E+01  0.7780E-01
    -22.742  0.1420E+01  0.9756E-01
    -22.728  0.1710E+01  0.1214E+00
    -22.715  0.2042E+01  0.1498E+00
    -22.701  0.2416E+01  0.1834E+00
    -22.687  0.2833E+01  0.2229E+00
    -22.673  0.3292E+01  0.2687E+00
    -22.659  0.3792E+01  0.3215E+00
    -22.645  0.4330E+01  0.3818E+00
    -22.631  0.4902E+01  0.4500E+00
    -22.617  0.5500E+01  0.5266E+00
    -22.603  0.6119E+01  0.6117E+00
    -22.589  0.6749E+01  0.7057E+00
    -22.575  0.7381E+01  0.8084E+00
    -22.561  0.8005E+01  0.9199E+00
    -22.547  0.8610E+01  0.1040E+01
    -22.534  0.9185E+01  0.1168E+01
    -22.520  0.9721E+01  0.1303E+01
    -22.506  0.1021E+02  0.1445E+01
    -22.492  0.1064E+02  0.1593E+01
    -22.478  0.1100E+02  0.1746E+01
    -22.464  0.1130E+02  0.1903E+01
    -22.450  0.1152E+02  0.2064E+01
    -22.436  0.1168E+02  0.2226E+01
    -22.422  0.1176E+02  0.2390E+01
    -22.408  0.1178E+02  0.2554E+01
    -22.394  0.1174E+02  0.2717E+01
    -22.380  0.1165E+02  0.2880E+01
    -22.367  0.1151E+02  0.3040E+01
    -22.353  0.1135E+02  0.3198E+01
    -22.339  0.1116E+02  0.3353E+01
    -22.325  0.1095E+02  0.3506E+01
    -22.311  0.1075E+02  0.3655E+01
    -22.297  0.1056E+02  0.3802E+01
    -22.283  0.1037E+02  0.3947E+01
    -22.269  0.1022E+02  0.4089E+01
    -22.255  0.1008E+02  0.4229E+01
    -22.241  0.9981E+01  0.4368E+01
    -22.227  0.9912E+01  0.4506E+01
    -22.213  0.9876E+01  0.4644E+01
    -22.199  0.9874E+01  0.4781E+01
    -22.186  0.9904E+01  0.4919E+01
    -22.172  0.9964E+01  0.5058E+01
    -22.158  0.1005E+02  0.5198E+01
    -22.144  0.1017E+02  0.5339E+01
    -22.130  0.1030E+02  0.5482E+01
    -22.116  0.1046E+02  0.5628E+01
    -22.102  0.1063E+02  0.5776E+01
    -22.088  0.1082E+02  0.5927E+01
    -22.074  0.1103E+02  0.6080E+01
    -22.060  0.1124E+02  0.6237E+01
    -22.046  0.1147E+02  0.6396E+01
    -22.032  0.1171E+02  0.6560E+01
    -22.018  0.1196E+02  0.6726E+01
    -22.005  0.1222E+02  0.6896E+01
    -21.991  0.1249E+02  0.7070E+01
    -21.977  0.1277E+02  0.7248E+01
    -21.963  0.1305E+02  0.7429E+01
    -21.949  0.1333E+02  0.7615E+01
    -21.935  0.1362E+02  0.7805E+01
    -21.921  0.1391E+02  0.7998E+01
    -21.907  0.1420E+02  0.8196E+01
    -21.893  0.1449E+02  0.8398E+01
    -21.879  0.1478E+02  0.8603E+01
    -21.865  0.1507E+02  0.8813E+01
    -21.851  0.1535E+02  0.9027E+01
    -21.838  0.1564E+02  0.9244E+01
    -21.824  0.1592E+02  0.9466E+01
    -21.810  0.1620E+02  0.9692E+01
    -21.796  0.1649E+02  0.9921E+01
    -21.782  0.1677E+02  0.1015E+02
    -21.768  0.1706E+02  0.1039E+02
    -21.754  0.1736E+02  0.1063E+02
    -21.740  0.1765E+02  0.1088E+02
    -21.726  0.1795E+02  0.1113E+02
    -21.712  0.1825E+02  0.1138E+02
    -21.698  0.1856E+02  0.1164E+02
    -21.684  0.1886E+02  0.1190E+02
    -21.670  0.1916E+02  0.1217E+02
    -21.657  0.1945E+02  0.1244E+02
    -21.643  0.1973E+02  0.1272E+02
    -21.629  0.1999E+02  0.1299E+02
    -21.615  0.2023E+02  0.1328E+02
    -21.601  0.2044E+02  0.1356E+02
    -21.587  0.2062E+02  0.1385E+02
    -21.573  0.2076E+02  0.1414E+02
    -21.559  0.2087E+02  0.1443E+02
    -21.545  0.2092E+02  0.1472E+02
    -21.531  0.2093E+02  0.1501E+02
    -21.517  0.2089E+02  0.1530E+02
    -21.503  0.2081E+02  0.1559E+02
    -21.490  0.2067E+02  0.1588E+02
    -21.476  0.2049E+02  0.1616E+02
    -21.462  0.2026E+02  0.1645E+02
    -21.448  0.2000E+02  0.1672E+02
    -21.434  0.1970E+02  0.1700E+02
    -21.420  0.1938E+02  0.1727E+02
    -21.406  0.1903E+02  0.1753E+02
    -21.392  0.1867E+02  0.1779E+02
    -21.378  0.1831E+02  0.1805E+02
    -21.364  0.1794E+02  0.1830E+02
    -21.350  0.1759E+02  0.1854E+02
    -21.336  0.1726E+02  0.1878E+02
    -21.322  0.1695E+02  0.1902E+02
    -21.309  0.1667E+02  0.1925E+02
    -21.295  0.1643E+02  0.1948E+02
    -21.281  0.1623E+02  0.1970E+02
    -21.267  0.1607E+02  0.1993E+02
    -21.253  0.1596E+02  0.2015E+02
    -21.239  0.1590E+02  0.2037E+02
    -21.225  0.1589E+02  0.2059E+02
    -21.211  0.1593E+02  0.2082E+02
    -21.197  0.1601E+02  0.2104E+02
    -21.183  0.1613E+02  0.2126E+02
    -21.169  0.1629E+02  0.2149E+02
    -21.155  0.1647E+02  0.2172E+02
    -21.141  0.1668E+02  0.2195E+02
    -21.128  0.1692E+02  0.2219E+02
    -21.114  0.1716E+02  0.2243E+02
    -21.100  0.1741E+02  0.2267E+02
    -21.086  0.1767E+02  0.2291E+02
    -21.072  0.1792E+02  0.2316E+02
    -21.058  0.1816E+02  0.2342E+02
    -21.044  0.1840E+02  0.2367E+02
    -21.030  0.1862E+02  0.2393E+02
    -21.016  0.1883E+02  0.2419E+02
    -21.002  0.1902E+02  0.2446E+02
    -20.988  0.1919E+02  0.2473E+02
    -20.974  0.1934E+02  0.2499E+02
    -20.961  0.1948E+02  0.2527E+02
    -20.947  0.1960E+02  0.2554E+02
    -20.933  0.1970E+02  0.2581E+02
    -20.919  0.1979E+02  0.2609E+02
    -20.905  0.1987E+02  0.2636E+02
    -20.891  0.1993E+02  0.2664E+02
    -20.877  0.1999E+02  0.2692E+02
    -20.863  0.2004E+02  0.2720E+02
    -20.849  0.2008E+02  0.2748E+02
    -20.835  0.2012E+02  0.2776E+02
    -20.821  0.2016E+02  0.2804E+02
    -20.807  0.2020E+02  0.2832E+02
    -20.793  0.2023E+02  0.2860E+02
    -20.780  0.2026E+02  0.2888E+02
    -20.766  0.2029E+02  0.2917E+02
    -20.752  0.2032E+02  0.2945E+02
    -20.738  0.2035E+02  0.2973E+02
    -20.724  0.2038E+02  0.3002E+02
    -20.710  0.2040E+02  0.3030E+02
    -20.696  0.2042E+02  0.3059E+02
    -20.682  0.2043E+02  0.3087E+02
    -20.668  0.2043E+02  0.3115E+02
    -20.654  0.2042E+02  0.3144E+02
    -20.640  0.2040E+02  0.3172E+02
    -20.626  0.2037E+02  0.3201E+02
    -20.612  0.2032E+02  0.3229E+02
    -20.599  0.2026E+02  0.3257E+02
    -20.585  0.2019E+02  0.3285E+02
    -20.571  0.2011E+02  0.3313E+02
    -20.557  0.2003E+02  0.3341E+02
    -20.543  0.1993E+02  0.3369E+02
    -20.529  0.1984E+02  0.3396E+02
    -20.515  0.1974E+02  0.3424E+02
    -20.501  0.1965E+02  0.3451E+02
    -20.487  0.1957E+02  0.3479E+02
    -20.473  0.1951E+02  0.3506E+02
    -20.459  0.1946E+02  0.3533E+02
    -20.445  0.1943E+02  0.3560E+02
    -20.432  0.1942E+02  0.3587E+02
    -20.418  0.1943E+02  0.3614E+02
    -20.404  0.1948E+02  0.3641E+02
    -20.390  0.1955E+02  0.3668E+02
    -20.376  0.1965E+02  0.3696E+02
    -20.362  0.1977E+02  0.3723E+02
    -20.348  0.1992E+02  0.3751E+02
    -20.334  0.2009E+02  0.3779E+02
    -20.320  0.2028E+02  0.3807E+02
    -20.306  0.2048E+02  0.3836E+02
    -20.292  0.2070E+02  0.3864E+02
    -20.278  0.2093E+02  0.3893E+02
    -20.264  0.2117E+02  0.3923E+02
    -20.251  0.2141E+02  0.3953E+02
    -20.237  0.2165E+02  0.3983E+02
    -20.223  0.2189E+02  0.4013E+02
    -20.209  0.2212E+02  0.4044E+02
    -20.195  0.2234E+02  0.4075E+02
    -20.181  0.2256E+02  0.4107E+02
    -20.167  0.2276E+02  0.4138E+02
    -20.153  0.2294E+02  0.4170E+02
    -20.139  0.2311E+02  0.4202E+02
    -20.125  0.2326E+02  0.4235E+02
    -20.111  0.2338E+02  0.4267E+02
    -20.097  0.2348E+02  0.4300E+02
    -20.084  0.2356E+02  0.4333E+02
    -20.070  0.2362E+02  0.4366E+02
    -20.056  0.2364E+02  0.4399E+02
    -20.042  0.2364E+02  0.4432E+02
    -20.028  0.2361E+02  0.4464E+02
    -20.014  0.2356E+02  0.4497E+02
    -20.000  0.2348E+02  0.4530E+02
    -19.986  0.2337E+02  0.4562E+02
    -19.972  0.2325E+02  0.4595E+02
    -19.958  0.2310E+02  0.4627E+02
    -19.944  0.2293E+02  0.4659E+02
    -19.930  0.2274E+02  0.4691E+02
    -19.916  0.2254E+02  0.4722E+02
    -19.903  0.2234E+02  0.4753E+02
    -19.889  0.2212E+02  0.4784E+02
    -19.875  0.2190E+02  0.4814E+02
    -19.861  0.2169E+02  0.4844E+02
    -19.847  0.2148E+02  0.4874E+02
    -19.833  0.2127E+02  0.4904E+02
    -19.819  0.2108E+02  0.4933E+02
    -19.805  0.2090E+02  0.4962E+02
    -19.791  0.2074E+02  0.4991E+02
    -19.777  0.2060E+02  0.5020E+02
    -19.763  0.2047E+02  0.5049E+02
    -19.749  0.2037E+02  0.5077E+02
    -19.735  0.2028E+02  0.5105E+02
    -19.722  0.2022E+02  0.5133E+02
    -19.708  0.2017E+02  0.5161E+02
    -19.694  0.2014E+02  0.5189E+02
    -19.680  0.2013E+02  0.5217E+02
    -19.666  0.2013E+02  0.5245E+02
    -19.652  0.2015E+02  0.5273E+02
    -19.638  0.2017E+02  0.5302E+02
    -19.624  0.2019E+02  0.5330E+02
    -19.610  0.2022E+02  0.5358E+02
    -19.596  0.2025E+02  0.5386E+02
    -19.582  0.2027E+02  0.5414E+02
    -19.568  0.2029E+02  0.5442E+02
    -19.555  0.2030E+02  0.5471E+02
    -19.541  0.2030E+02  0.5499E+02
    -19.527  0.2029E+02  0.5527E+02
    -19.513  0.2028E+02  0.5555E+02
    -19.499  0.2026E+02  0.5584E+02
    -19.485  0.2023E+02  0.5612E+02
    -19.471  0.2020E+02  0.5640E+02
    -19.457  0.2017E+02  0.5668E+02
    -19.443  0.2014E+02  0.5696E+02
    -19.429  0.2012E+02  0.5724E+02
    -19.415  0.2011E+02  0.5752E+02
    -19.401  0.2012E+02  0.5780E+02
    -19.387  0.2014E+02  0.5808E+02
    -19.374  0.2019E+02  0.5836E+02
    -19.360  0.2026E+02  0.5864E+02
    -19.346  0.2035E+02  0.5893E+02
    -19.332  0.2047E+02  0.5921E+02
    -19.318  0.2062E+02  0.5950E+02
    -19.304  0.2078E+02  0.5979E+02
    -19.290  0.2097E+02  0.6008E+02
    -19.276  0.2118E+02  0.6038E+02
    -19.262  0.2140E+02  0.6067E+02
    -19.248  0.2163E+02  0.6097E+02
    -19.234  0.2187E+02  0.6128E+02
    -19.220  0.2211E+02  0.6159E+02
    -19.207  0.2234E+02  0.6190E+02
    -19.193  0.2257E+02  0.6221E+02
    -19.179  0.2279E+02  0.6253E+02
    -19.165  0.2299E+02  0.6285E+02
    -19.151  0.2318E+02  0.6317E+02
    -19.137  0.2335E+02  0.6350E+02
    -19.123  0.2350E+02  0.6382E+02
    -19.109  0.2364E+02  0.6415E+02
    -19.095  0.2376E+02  0.6448E+02
    -19.081  0.2386E+02  0.6482E+02
    -19.067  0.2394E+02  0.6515E+02
    -19.053  0.2401E+02  0.6548E+02
    -19.039  0.2408E+02  0.6582E+02
    -19.026  0.2412E+02  0.6615E+02
    -19.012  0.2417E+02  0.6649E+02
    -18.998  0.2420E+02  0.6683E+02
    -18.984  0.2422E+02  0.6716E+02
    -18.970  0.2424E+02  0.6750E+02
    -18.956  0.2426E+02  0.6784E+02
    -18.942  0.2426E+02  0.6818E+02
    -18.928  0.2427E+02  0.6852E+02
    -18.914  0.2426E+02  0.6885E+02
    -18.900  0.2425E+02  0.6919E+02
    -18.886  0.2423E+02  0.6953E+02
    -18.872  0.2421E+02  0.6987E+02
    -18.858  0.2417E+02  0.7020E+02
    -18.845  0.2412E+02  0.7054E+02
    -18.831  0.2407E+02  0.7087E+02
    -18.817  0.2399E+02  0.7121E+02
    -18.803  0.2391E+02  0.7154E+02
    -18.789  0.2381E+02  0.7187E+02
    -18.775  0.2369E+02  0.7220E+02
    -18.761  0.2355E+02  0.7253E+02
    -18.747  0.2340E+02  0.7285E+02
    -18.733  0.2323E+02  0.7318E+02
    -18.719  0.2303E+02  0.7350E+02
    -18.705  0.2283E+02  0.7382E+02
    -18.691  0.2260E+02  0.7413E+02
    -18.678  0.2236E+02  0.7444E+02
    -18.664  0.2211E+02  0.7475E+02
    -18.650  0.2185E+02  0.7505E+02
    -18.636  0.2158E+02  0.7535E+02
    -18.622  0.2131E+02  0.7565E+02
    -18.608  0.2104E+02  0.7594E+02
    -18.594  0.2078E+02  0.7623E+02
    -18.580  0.2054E+02  0.7652E+02
    -18.566  0.2031E+02  0.7680E+02
    -18.552  0.2011E+02  0.7708E+02
    -18.538  0.1994E+02  0.7736E+02
    -18.524  0.1981E+02  0.7763E+02
    -18.510  0.1971E+02  0.7791E+02
    -18.497  0.1966E+02  0.7818E+02
    -18.483  0.1966E+02  0.7846E+02
    -18.469  0.1971E+02  0.7873E+02
    -18.455  0.1981E+02  0.7901E+02
    -18.441  0.1995E+02  0.7928E+02
    -18.427  0.2015E+02  0.7956E+02
    -18.413  0.2038E+02  0.7985E+02
    -18.399  0.2066E+02  0.8014E+02
    -18.385  0.2096E+02  0.8043E+02
    -18.371  0.2130E+02  0.8072E+02
    -18.357  0.2165E+02  0.8103E+02
    -18.343  0.2201E+02  0.8133E+02
    -18.330  0.2237E+02  0.8164E+02
    -18.316  0.2272E+02  0.8196E+02
    -18.302  0.2306E+02  0.8228E+02
    -18.288  0.2337E+02  0.8261E+02
    -18.274  0.2364E+02  0.8294E+02
    -18.260  0.2388E+02  0.8327E+02
    -18.246  0.2406E+02  0.8360E+02
    -18.232  0.2419E+02  0.8394E+02
    -18.218  0.2427E+02  0.8428E+02
    -18.204  0.2429E+02  0.8462E+02
    -18.190  0.2425E+02  0.8495E+02
    -18.176  0.2415E+02  0.8529E+02
    -18.162  0.2400E+02  0.8562E+02
    -18.149  0.2380E+02  0.8595E+02
    -18.135  0.2356E+02  0.8628E+02
    -18.121  0.2329E+02  0.8661E+02
    -18.107  0.2299E+02  0.8693E+02
    -18.093  0.2267E+02  0.8724E+02
    -18.079  0.2234E+02  0.8755E+02
    -18.065  0.2202E+02  0.8786E+02
    -18.051  0.2170E+02  0.8816E+02
    -18.037  0.2141E+02  0.8846E+02
    -18.023  0.2114E+02  0.8875E+02
    -18.009  0.2091E+02  0.8905E+02
    -17.995  0.2071E+02  0.8933E+02
    -17.981  0.2056E+02  0.8962E+02
    -17.968  0.2044E+02  0.8990E+02
    -17.954  0.2037E+02  0.9019E+02
    -17.940  0.2034E+02  0.9047E+02
    -17.926  0.2034E+02  0.9075E+02
    -17.912  0.2037E+02  0.9104E+02
    -17.898  0.2044E+02  0.9132E+02
    -17.884  0.2052E+02  0.9161E+02
    -17.870  0.2061E+02  0.9190E+02
    -17.856  0.2072E+02  0.9218E+02
    -17.842  0.2083E+02  0.9247E+02
    -17.828  0.2095E+02  0.9277E+02
    -17.814  0.2106E+02  0.9306E+02
    -17.801  0.2116E+02  0.9335E+02
    -17.787  0.2126E+02  0.9365E+02
    -17.773  0.2136E+02  0.9395E+02
    -17.759  0.2145E+02  0.9424E+02
    -17.745  0.2153E+02  0.9454E+02
    -17.731  0.2161E+02  0.9485E+02
    -17.717  0.2169E+02  0.9515E+02
    -17.703  0.2178E+02  0.9545E+02
    -17.689  0.2186E+02  0.9575E+02
    -17.675  0.2194E+02  0.9606E+02
    -17.661  0.2203E+02  0.9637E+02
    -17.647  0.2213E+02  0.9668E+02
    -17.633  0.2223E+02  0.9698E+02
    -17.620  0.2233E+02  0.9730E+02
    -17.606  0.2243E+02  0.9761E+02
    -17.592  0.2253E+02  0.9792E+02
    -17.578  0.2263E+02  0.9824E+02
    -17.564  0.2272E+02  0.9855E+02
    -17.550  0.2281E+02  0.9887E+02
    -17.536  0.2289E+02  0.9919E+02
    -17.522  0.2296E+02  0.9951E+02
    -17.508  0.2302E+02  0.9983E+02
    -17.494  0.2307E+02  0.1001E+03
    -17.480  0.2311E+02  0.1005E+03
    -17.466  0.2314E+02  0.1008E+03
    -17.453  0.2316E+02  0.1011E+03
    -17.439  0.2318E+02  0.1014E+03
    -17.425  0.2319E+02  0.1018E+03
    -17.411  0.2320E+02  0.1021E+03
    -17.397  0.2320E+02  0.1024E+03
    -17.383  0.2320E+02  0.1027E+03
    -17.369  0.2321E+02  0.1031E+03
    -17.355  0.2321E+02  0.1034E+03
    -17.341  0.2322E+02  0.1037E+03
    -17.327  0.2323E+02  0.1040E+03
    -17.313  0.2325E+02  0.1043E+03
    -17.299  0.2326E+02  0.1047E+03
    -17.285  0.2328E+02  0.1050E+03
    -17.272  0.2330E+02  0.1053E+03
    -17.258  0.2332E+02  0.1056E+03
    -17.244  0.2333E+02  0.1060E+03
    -17.230  0.2334E+02  0.1063E+03
    -17.216  0.2334E+02  0.1066E+03
    -17.202  0.2333E+02  0.1069E+03
    -17.188  0.2331E+02  0.1073E+03
    -17.174  0.2327E+02  0.1076E+03
    -17.160  0.2322E+02  0.1079E+03
    -17.146  0.2314E+02  0.1082E+03
    -17.132  0.2305E+02  0.1086E+03
    -17.118  0.2293E+02  0.1089E+03
    -17.104  0.2278E+02  0.1092E+03
    -17.091  0.2262E+02  0.1095E+03
    -17.077  0.2243E+02  0.1098E+03
    -17.063  0.2222E+02  0.1101E+03
    -17.049  0.2198E+02  0.1104E+03
    -17.035  0.2173E+02  0.1107E+03
    -17.021  0.2146E+02  0.1110E+03
    -17.007  0.2118E+02  0.1113E+03
    -16.993  0.2088E+02  0.1116E+03
    -16.979  0.2059E+02  0.1119E+03
    -16.965  0.2029E+02  0.1122E+03
    -16.951  0.1999E+02  0.1125E+03
    -16.937  0.1971E+02  0.1127E+03
    -16.924  0.1943E+02  0.1130E+03
    -16.910  0.1918E+02  0.1133E+03
    -16.896  0.1894E+02  0.1135E+03
    -16.882  0.1874E+02  0.1138E+03
    -16.868  0.1856E+02  0.1141E+03
    -16.854  0.1841E+02  0.1143E+03
    -16.840  0.1829E+02  0.1146E+03
    -16.826  0.1821E+02  0.1148E+03
    -16.812  0.1817E+02  0.1151E+03
    -16.798  0.1815E+02  0.1153E+03
    -16.784  0.1818E+02  0.1156E+03
    -16.770  0.1823E+02  0.1158E+03
    -16.756  0.1831E+02  0.1161E+03
    -16.743  0.1842E+02  0.1164E+03
    -16.729  0.1855E+02  0.1166E+03
    -16.715  0.1869E+02  0.1169E+03
    -16.701  0.1884E+02  0.1171E+03
    -16.687  0.1901E+02  0.1174E+03
    -16.673  0.1917E+02  0.1177E+03
    -16.659  0.1933E+02  0.1179E+03
    -16.645  0.1949E+02  0.1182E+03
    -16.631  0.1963E+02  0.1185E+03
    -16.617  0.1976E+02  0.1188E+03
    -16.603  0.1988E+02  0.1190E+03
    -16.589  0.1997E+02  0.1193E+03
    -16.575  0.2006E+02  0.1196E+03
    -16.562  0.2013E+02  0.1199E+03
    -16.548  0.2018E+02  0.1201E+03
    -16.534  0.2023E+02  0.1204E+03
    -16.520  0.2027E+02  0.1207E+03
    -16.506  0.2031E+02  0.1210E+03
    -16.492  0.2036E+02  0.1213E+03
    -16.478  0.2041E+02  0.1216E+03
    -16.464  0.2048E+02  0.1218E+03
    -16.450  0.2057E+02  0.1221E+03
    -16.436  0.2068E+02  0.1224E+03
    -16.422  0.2081E+02  0.1227E+03
    -16.408  0.2097E+02  0.1230E+03
    -16.395  0.2116E+02  0.1233E+03
    -16.381  0.2137E+02  0.1236E+03
    -16.367  0.2161E+02  0.1239E+03
    -16.353  0.2188E+02  0.1242E+03
    -16.339  0.2215E+02  0.1245E+03
    -16.325  0.2244E+02  0.1248E+03
    -16.311  0.2274E+02  0.1251E+03
    -16.297  0.2303E+02  0.1255E+03
    -16.283  0.2332E+02  0.1258E+03
    -16.269  0.2359E+02  0.1261E+03
    -16.255  0.2384E+02  0.1264E+03
    -16.241  0.2407E+02  0.1268E+03
    -16.227  0.2426E+02  0.1271E+03
    -16.214  0.2442E+02  0.1275E+03
    -16.200  0.2454E+02  0.1278E+03
    -16.186  0.2462E+02  0.1281E+03
    -16.172  0.2466E+02  0.1285E+03
    -16.158  0.2466E+02  0.1288E+03
    -16.144  0.2462E+02  0.1292E+03
    -16.130  0.2454E+02  0.1295E+03
    -16.116  0.2442E+02  0.1299E+03
    -16.102  0.2427E+02  0.1302E+03
    -16.088  0.2409E+02  0.1305E+03
    -16.074  0.2387E+02  0.1309E+03
    -16.060  0.2363E+02  0.1312E+03
    -16.047  0.2337E+02  0.1315E+03
    -16.033  0.2309E+02  0.1318E+03
    -16.019  0.2280E+02  0.1322E+03
    -16.005  0.2250E+02  0.1325E+03
    -15.991  0.2219E+02  0.1328E+03
    -15.977  0.2188E+02  0.1331E+03
    -15.963  0.2158E+02  0.1334E+03
    -15.949  0.2128E+02  0.1337E+03
    -15.935  0.2099E+02  0.1340E+03
    -15.921  0.2073E+02  0.1343E+03
    -15.907  0.2048E+02  0.1345E+03
    -15.893  0.2026E+02  0.1348E+03
    -15.879  0.2007E+02  0.1351E+03
    -15.866  0.1991E+02  0.1354E+03
    -15.852  0.1978E+02  0.1357E+03
    -15.838  0.1969E+02  0.1359E+03
    -15.824  0.1964E+02  0.1362E+03
    -15.810  0.1961E+02  0.1365E+03
    -15.796  0.1963E+02  0.1367E+03
    -15.782  0.1967E+02  0.1370E+03
    -15.768  0.1975E+02  0.1373E+03
    -15.754  0.1985E+02  0.1376E+03
    -15.740  0.1997E+02  0.1379E+03
    -15.726  0.2012E+02  0.1381E+03
    -15.712  0.2028E+02  0.1384E+03
    -15.698  0.2045E+02  0.1387E+03
    -15.685  0.2063E+02  0.1390E+03
    -15.671  0.2081E+02  0.1393E+03
    -15.657  0.2101E+02  0.1396E+03
    -15.643  0.2120E+02  0.1399E+03
    -15.629  0.2139E+02  0.1402E+03
    -15.615  0.2158E+02  0.1405E+03
    -15.601  0.2177E+02  0.1408E+03
    -15.587  0.2195E+02  0.1411E+03
    -15.573  0.2214E+02  0.1414E+03
    -15.559  0.2232E+02  0.1417E+03
    -15.545  0.2249E+02  0.1420E+03
    -15.531  0.2267E+02  0.1423E+03
    -15.518  0.2283E+02  0.1426E+03
    -15.504  0.2300E+02  0.1430E+03
    -15.490  0.2315E+02  0.1433E+03
    -15.476  0.2329E+02  0.1436E+03
    -15.462  0.2343E+02  0.1439E+03
    -15.448  0.2354E+02  0.1443E+03
    -15.434  0.2365E+02  0.1446E+03
    -15.420  0.2373E+02  0.1449E+03
    -15.406  0.2379E+02  0.1452E+03
    -15.392  0.2383E+02  0.1456E+03
    -15.378  0.2385E+02  0.1459E+03
    -15.364  0.2384E+02  0.1462E+03
    -15.350  0.2380E+02  0.1466E+03
    -15.337  0.2374E+02  0.1469E+03
    -15.323  0.2366E+02  0.1472E+03
    -15.309  0.2356E+02  0.1476E+03
    -15.295  0.2343E+02  0.1479E+03
    -15.281  0.2330E+02  0.1482E+03
    -15.267  0.2315E+02  0.1485E+03
    -15.253  0.2299E+02  0.1489E+03
    -15.239  0.2282E+02  0.1492E+03
    -15.225  0.2265E+02  0.1495E+03
    -15.211  0.2248E+02  0.1498E+03
    -15.197  0.2232E+02  0.1501E+03
    -15.183  0.2215E+02  0.1504E+03
    -15.170  0.2200E+02  0.1507E+03
    -15.156  0.2184E+02  0.1510E+03
    -15.142  0.2170E+02  0.1513E+03
    -15.128  0.2157E+02  0.1516E+03
    -15.114  0.2144E+02  0.1519E+03
    -15.100  0.2132E+02  0.1522E+03
    -15.086  0.2120E+02  0.1525E+03
    -15.072  0.2109E+02  0.1528E+03
    -15.058  0.2100E+02  0.1531E+03
    -15.044  0.2090E+02  0.1534E+03
    -15.030  0.2082E+02  0.1537E+03
    -15.016  0.2074E+02  0.1540E+03
    -15.002  0.2068E+02  0.1543E+03
    -14.989  0.2062E+02  0.1546E+03
    -14.975  0.2057E+02  0.1548E+03
    -14.961  0.2054E+02  0.1551E+03
    -14.947  0.2052E+02  0.1554E+03
    -14.933  0.2051E+02  0.1557E+03
    -14.919  0.2051E+02  0.1560E+03
    -14.905  0.2052E+02  0.1563E+03
    -14.891  0.2055E+02  0.1566E+03
    -14.877  0.2059E+02  0.1568E+03
    -14.863  0.2064E+02  0.1571E+03
    -14.849  0.2071E+02  0.1574E+03
    -14.835  0.2078E+02  0.1577E+03
    -14.821  0.2086E+02  0.1580E+03
    -14.808  0.2094E+02  0.1583E+03
    -14.794  0.2103E+02  0.1586E+03
    -14.780  0.2113E+02  0.1589E+03
    -14.766  0.2123E+02  0.1592E+03
    -14.752  0.2134E+02  0.1595E+03
    -14.738  0.2145E+02  0.1598E+03
    -14.724  0.2156E+02  0.1601E+03
    -14.710  0.2167E+02  0.1604E+03
    -14.696  0.2178E+02  0.1607E+03
    -14.682  0.2190E+02  0.1610E+03
    -14.668  0.2201E+02  0.1613E+03
    -14.654  0.2213E+02  0.1616E+03
    -14.641  0.2224E+02  0.1619E+03
    -14.627  0.2235E+02  0.1622E+03
    -14.613  0.2245E+02  0.1625E+03
    -14.599  0.2254E+02  0.1628E+03
    -14.585  0.2263E+02  0.1631E+03
    -14.571  0.2270E+02  0.1635E+03
    -14.557  0.2276E+02  0.1638E+03
    -14.543  0.2281E+02  0.1641E+03
    -14.529  0.2284E+02  0.1644E+03
    -14.515  0.2285E+02  0.1647E+03
    -14.501  0.2284E+02  0.1651E+03
    -14.487  0.2281E+02  0.1654E+03
    -14.473  0.2276E+02  0.1657E+03
    -14.460  0.2269E+02  0.1660E+03
    -14.446  0.2261E+02  0.1663E+03
    -14.432  0.2251E+02  0.1666E+03
    -14.418  0.2240E+02  0.1669E+03
    -14.404  0.2229E+02  0.1673E+03
    -14.390  0.2218E+02  0.1676E+03
    -14.376  0.2206E+02  0.1679E+03
    -14.362  0.2196E+02  0.1682E+03
    -14.348  0.2186E+02  0.1685E+03
    -14.334  0.2179E+02  0.1688E+03
    -14.320  0.2173E+02  0.1691E+03
    -14.306  0.2169E+02  0.1694E+03
    -14.293  0.2168E+02  0.1697E+03
    -14.279  0.2169E+02  0.1700E+03
    -14.265  0.2173E+02  0.1703E+03
    -14.251  0.2179E+02  0.1706E+03
    -14.237  0.2188E+02  0.1709E+03
    -14.223  0.2199E+02  0.1712E+03
    -14.209  0.2211E+02  0.1715E+03
    -14.195  0.2224E+02  0.1718E+03
    -14.181  0.2239E+02  0.1721E+03
    -14.167  0.2253E+02  0.1725E+03
    -14.153  0.2268E+02  0.1728E+03
    -14.139  0.2281E+02  0.1731E+03
    -14.125  0.2294E+02  0.1734E+03
    -14.112  0.2306E+02  0.1737E+03
    -14.098  0.2316E+02  0.1740E+03
    -14.084  0.2325E+02  0.1744E+03
    -14.070  0.2332E+02  0.1747E+03
    -14.056  0.2337E+02  0.1750E+03
    -14.042  0.2341E+02  0.1753E+03
    -14.028  0.2344E+02  0.1757E+03
    -14.014  0.2345E+02  0.1760E+03
    -14.000  0.2346E+02  0.1763E+03
    -13.986  0.2346E+02  0.1767E+03
    -13.972  0.2346E+02  0.1770E+03
    -13.958  0.2345E+02  0.1773E+03
    -13.944  0.2345E+02  0.1776E+03
    -13.931  0.2344E+02  0.1780E+03
    -13.917  0.2343E+02  0.1783E+03
    -13.903  0.2342E+02  0.1786E+03
    -13.889  0.2342E+02  0.1789E+03
    -13.875  0.2341E+02  0.1793E+03
    -13.861  0.2340E+02  0.1796E+03
    -13.847  0.2339E+02  0.1799E+03
    -13.833  0.2338E+02  0.1802E+03
    -13.819  0.2336E+02  0.1806E+03
    -13.805  0.2333E+02  0.1809E+03
    -13.791  0.2330E+02  0.1812E+03
    -13.777  0.2327E+02  0.1815E+03
    -13.764  0.2323E+02  0.1819E+03
    -13.750  0.2319E+02  0.1822E+03
    -13.736  0.2314E+02  0.1825E+03
    -13.722  0.2309E+02  0.1828E+03
    -13.708  0.2303E+02  0.1831E+03
    -13.694  0.2298E+02  0.1835E+03
    -13.680  0.2292E+02  0.1838E+03
    -13.666  0.2287E+02  0.1841E+03
    -13.652  0.2282E+02  0.1844E+03
    -13.638  0.2277E+02  0.1847E+03
    -13.624  0.2273E+02  0.1851E+03
    -13.610  0.2271E+02  0.1854E+03
    -13.596  0.2269E+02  0.1857E+03
    -13.583  0.2269E+02  0.1860E+03
    -13.569  0.2271E+02  0.1863E+03
    -13.555  0.2275E+02  0.1866E+03
    -13.541  0.2280E+02  0.1870E+03
    -13.527  0.2289E+02  0.1873E+03
    -13.513  0.2299E+02  0.1876E+03
    -13.499  0.2313E+02  0.1879E+03
    -13.485  0.2328E+02  0.1882E+03
    -13.471  0.2346E+02  0.1886E+03
    -13.457  0.2367E+02  0.1889E+03
    -13.443  0.2389E+02  0.1892E+03
    -13.429  0.2412E+02  0.1896E+03
    -13.415  0.2437E+02  0.1899E+03
    -13.402  0.2463E+02  0.1902E+03
    -13.388  0.2488E+02  0.1906E+03
    -13.374  0.2514E+02  0.1909E+03
    -13.360  0.2538E+02  0.1913E+03
    -13.346  0.2561E+02  0.1917E+03
    -13.332  0.2582E+02  0.1920E+03
    -13.318  0.2601E+02  0.1924E+03
    -13.304  0.2618E+02  0.1927E+03
    -13.290  0.2632E+02  0.1931E+03
    -13.276  0.2644E+02  0.1935E+03
    -13.262  0.2652E+02  0.1938E+03
    -13.248  0.2659E+02  0.1942E+03
    -13.235  0.2662E+02  0.1946E+03
    -13.221  0.2663E+02  0.1950E+03
    -13.207  0.2662E+02  0.1953E+03
    -13.193  0.2659E+02  0.1957E+03
    -13.179  0.2654E+02  0.1961E+03
    -13.165  0.2648E+02  0.1964E+03
    -13.151  0.2640E+02  0.1968E+03
    -13.137  0.2630E+02  0.1972E+03
    -13.123  0.2619E+02  0.1975E+03
    -13.109  0.2608E+02  0.1979E+03
    -13.095  0.2595E+02  0.1983E+03
    -13.081  0.2581E+02  0.1986E+03
    -13.067  0.2566E+02  0.1990E+03
    -13.054  0.2550E+02  0.1993E+03
    -13.040  0.2533E+02  0.1997E+03
    -13.026  0.2515E+02  0.2000E+03
    -13.012  0.2496E+02  0.2004E+03