 220 220   0   0
  0.5391924E+02  0.2826678E-08  0.2098264E-08  0.2000000E-08  0.5000000E-15
  1.000000000000000E-004
  CAR 
 unknown system                          
      3.00147648    -24.86860172 2000     -3.90260358      1.00000000
    -24.869  0.0000E+00  0.0000E+00
    -24.855  0.0000E+00  0.0000E+00
    -24.841  0.0000E+00  0.0000E+00
    -24.827  0.0000E+00  0.0000E+00
    -24.813  0.0000E+00  0.0000E+00
    -24.799  0.0000E+00  0.0000E+00
    -24.785  0.0000E+00  0.0000E+00
    -24.771  0.0000E+00  0.0000E+00
    -24.757  0.0000E+00  0.0000E+00
    -24.743  0.0000E+00  0.0000E+00
    -24.729  0.0000E+00  0.0000E+00
    -24.715  0.0000E+00  0.0000E+00
    -24.701  0.0000E+00  0.0000E+00
    -24.687  0.0000E+00  0.0000E+00
    -24.673  0.0000E+00  0.0000E+00
    -24.659  0.0000E+00  0.0000E+00
    -24.646  0.0000E+00  0.0000E+00
    -24.632  0.0000E+00  0.0000E+00
    -24.618  0.0000E+00  0.0000E+00
    -24.604  0.0000E+00  0.0000E+00
    -24.590  0.0000E+00  0.0000E+00
    -24.576  0.0000E+00  0.0000E+00
    -24.562  0.0000E+00  0.0000E+00
    -24.548  0.0000E+00  0.0000E+00
    -24.534  0.0000E+00  0.0000E+00
    -24.520  0.0000E+00  0.0000E+00
    -24.506  0.0000E+00  0.0000E+00
    -24.492  0.0000E+00  0.0000E+00
    -24.478  0.0000E+00  0.0000E+00
    -24.464  0.0000E+00  0.0000E+00
    -24.450  0.0000E+00  0.0000E+00
    -24.436  0.0000E+00  0.0000E+00
    -24.422  0.0000E+00  0.0000E+00
    -24.409  0.0000E+00  0.0000E+00
    -24.395  0.0000E+00  0.0000E+00
    -24.381  0.0000E+00  0.0000E+00
    -24.367  0.0000E+00  0.0000E+00
    -24.353  0.0000E+00  0.0000E+00
    -24.339  0.0000E+00  0.0000E+00
    -24.325  0.0000E+00  0.0000E+00
    -24.311  0.0000E+00  0.0000E+00
    -24.297  0.0000E+00  0.0000E+00
    -24.283  0.0000E+00  0.0000E+00
    -24.269  0.0000E+00  0.0000E+00
    -24.255  0.0000E+00  0.0000E+00
    -24.241  0.0000E+00  0.0000E+00
    -24.227  0.0000E+00  0.0000E+00
    -24.213  0.0000E+00  0.0000E+00
    -24.199  0.0000E+00  0.0000E+00
    -24.185  0.0000E+00  0.0000E+00
    -24.172  0.0000E+00  0.0000E+00
    -24.158  0.0000E+00  0.0000E+00
    -24.144  0.0000E+00  0.0000E+00
    -24.130  0.0000E+00  0.0000E+00
    -24.116  0.0000E+00  0.0000E+00
    -24.102  0.0000E+00  0.0000E+00
    -24.088  0.0000E+00  0.0000E+00
    -24.074  0.0000E+00  0.0000E+00
    -24.060  0.0000E+00  0.0000E+00
    -24.046  0.7963E-14  0.1110E-15
    -24.032  0.7963E-14  0.2220E-15
    -24.018  0.1593E-13  0.4441E-15
    -24.004  0.3982E-13  0.9992E-15
    -23.990  0.8759E-13  0.2220E-14
    -23.976  0.1832E-12  0.4774E-14
    -23.962  0.4061E-12  0.1044E-13
    -23.948  0.8680E-12  0.2254E-13
    -23.934  0.1832E-11  0.4807E-13
    -23.921  0.3862E-11  0.1019E-12
    -23.907  0.8035E-11  0.2139E-12
    -23.893  0.1655E-10  0.4447E-12
    -23.879  0.3377E-10  0.9156E-12
    -23.865  0.6827E-10  0.1867E-11
    -23.851  0.1366E-09  0.3772E-11
    -23.837  0.2708E-09  0.7548E-11
    -23.823  0.5316E-09  0.1496E-10
    -23.809  0.1033E-08  0.2937E-10
    -23.795  0.1990E-08  0.5711E-10
    -23.781  0.3793E-08  0.1100E-09
    -23.767  0.7163E-08  0.2099E-09
    -23.753  0.1339E-07  0.3966E-09
    -23.739  0.2480E-07  0.7424E-09
    -23.725  0.4549E-07  0.1377E-08
    -23.711  0.8261E-07  0.2528E-08
    -23.697  0.1486E-06  0.4600E-08
    -23.684  0.2647E-06  0.8291E-08
    -23.670  0.4669E-06  0.1480E-07
    -23.656  0.8158E-06  0.2617E-07
    -23.642  0.1411E-05  0.4585E-07
    -23.628  0.2418E-05  0.7957E-07
    -23.614  0.4104E-05  0.1368E-06
    -23.600  0.6896E-05  0.2329E-06
    -23.586  0.1148E-04  0.3929E-06
    -23.572  0.1892E-04  0.6567E-06
    -23.558  0.3087E-04  0.1087E-05
    -23.544  0.4991E-04  0.1783E-05
    -23.530  0.7989E-04  0.2897E-05
    -23.516  0.1267E-03  0.4663E-05
    -23.502  0.1989E-03  0.7435E-05
    -23.488  0.3092E-03  0.1175E-04
    -23.474  0.4761E-03  0.1838E-04
    -23.460  0.7260E-03  0.2851E-04
    -23.447  0.1096E-02  0.4379E-04
    -23.433  0.1640E-02  0.6666E-04
    -23.419  0.2429E-02  0.1005E-03
    -23.405  0.3563E-02  0.1502E-03
    -23.391  0.5176E-02  0.2224E-03
    -23.377  0.7446E-02  0.3262E-03
    -23.363  0.1061E-01  0.4741E-03
    -23.349  0.1497E-01  0.6828E-03
    -23.335  0.2092E-01  0.9744E-03
    -23.321  0.2894E-01  0.1378E-02
    -23.307  0.3967E-01  0.1931E-02
    -23.293  0.5384E-01  0.2682E-02
    -23.279  0.7236E-01  0.3690E-02
    -23.265  0.9632E-01  0.5033E-02
    -23.251  0.1270E+00  0.6804E-02
    -23.237  0.1658E+00  0.9115E-02
    -23.223  0.2143E+00  0.1210E-01
    -23.210  0.2744E+00  0.1593E-01
    -23.196  0.3479E+00  0.2078E-01
    -23.182  0.4369E+00  0.2687E-01
    -23.168  0.5434E+00  0.3445E-01
    -23.154  0.6693E+00  0.4378E-01
    -23.140  0.8163E+00  0.5516E-01
    -23.126  0.9860E+00  0.6891E-01
    -23.112  0.1180E+01  0.8535E-01
    -23.098  0.1397E+01  0.1048E+00
    -23.084  0.1640E+01  0.1277E+00
    -23.070  0.1905E+01  0.1543E+00
    -23.056  0.2192E+01  0.1848E+00
    -23.042  0.2498E+01  0.2197E+00
    -23.028  0.2820E+01  0.2590E+00
    -23.014  0.3152E+01  0.3029E+00
    -23.000  0.3489E+01  0.3516E+00
    -22.986  0.3826E+01  0.4049E+00
    -22.972  0.4154E+01  0.4628E+00
    -22.959  0.4468E+01  0.5251E+00
    -22.945  0.4760E+01  0.5915E+00
    -22.931  0.5023E+01  0.6615E+00
    -22.917  0.5250E+01  0.7347E+00
    -22.903  0.5437E+01  0.8105E+00
    -22.889  0.5579E+01  0.8883E+00
    -22.875  0.5674E+01  0.9674E+00
    -22.861  0.5719E+01  0.1047E+01
    -22.847  0.5716E+01  0.1127E+01
    -22.833  0.5667E+01  0.1206E+01
    -22.819  0.5577E+01  0.1284E+01
    -22.805  0.5451E+01  0.1360E+01
    -22.791  0.5296E+01  0.1433E+01
    -22.777  0.5122E+01  0.1505E+01
    -22.763  0.4939E+01  0.1574E+01
    -22.749  0.4756E+01  0.1640E+01
    -22.735  0.4584E+01  0.1704E+01
    -22.722  0.4434E+01  0.1766E+01
    -22.708  0.4316E+01  0.1826E+01
    -22.694  0.4240E+01  0.1885E+01
    -22.680  0.4212E+01  0.1944E+01
    -22.666  0.4241E+01  0.2003E+01
    -22.652  0.4330E+01  0.2063E+01
    -22.638  0.4484E+01  0.2126E+01
    -22.624  0.4704E+01  0.2191E+01
    -22.610  0.4988E+01  0.2261E+01
    -22.596  0.5334E+01  0.2335E+01
    -22.582  0.5738E+01  0.2415E+01
    -22.568  0.6194E+01  0.2502E+01
    -22.554  0.6693E+01  0.2595E+01
    -22.540  0.7228E+01  0.2696E+01
    -22.526  0.7789E+01  0.2804E+01
    -22.512  0.8365E+01  0.2921E+01
    -22.498  0.8946E+01  0.3046E+01
    -22.485  0.9523E+01  0.3178E+01
    -22.471  0.1009E+02  0.3319E+01
    -22.457  0.1063E+02  0.3467E+01
    -22.443  0.1115E+02  0.3623E+01
    -22.429  0.1163E+02  0.3785E+01
    -22.415  0.1209E+02  0.3953E+01
    -22.401  0.1251E+02  0.4128E+01
    -22.387  0.1290E+02  0.4308E+01
    -22.373  0.1327E+02  0.4493E+01
    -22.359  0.1362E+02  0.4683E+01
    -22.345  0.1396E+02  0.4877E+01
    -22.331  0.1431E+02  0.5077E+01
    -22.317  0.1466E+02  0.5281E+01
    -22.303  0.1503E+02  0.5491E+01
    -22.289  0.1543E+02  0.5706E+01
    -22.275  0.1587E+02  0.5927E+01
    -22.261  0.1635E+02  0.6155E+01
    -22.248  0.1689E+02  0.6391E+01
    -22.234  0.1748E+02  0.6634E+01
    -22.220  0.1812E+02  0.6887E+01
    -22.206  0.1882E+02  0.7149E+01
    -22.192  0.1956E+02  0.7422E+01
    -22.178  0.2035E+02  0.7706E+01
    -22.164  0.2116E+02  0.8001E+01
    -22.150  0.2200E+02  0.8307E+01
    -22.136  0.2284E+02  0.8626E+01
    -22.122  0.2368E+02  0.8956E+01
    -22.108  0.2450E+02  0.9298E+01
    -22.094  0.2530E+02  0.9650E+01
    -22.080  0.2605E+02  0.1001E+02
    -22.066  0.2675E+02  0.1039E+02
    -22.052  0.2740E+02  0.1077E+02
    -22.038  0.2797E+02  0.1116E+02
    -22.024  0.2848E+02  0.1156E+02
    -22.010  0.2892E+02  0.1196E+02
    -21.997  0.2929E+02  0.1237E+02
    -21.983  0.2958E+02  0.1278E+02
    -21.969  0.2980E+02  0.1319E+02
    -21.955  0.2997E+02  0.1361E+02
    -21.941  0.3007E+02  0.1403E+02
    -21.927  0.3012E+02  0.1445E+02
    -21.913  0.3012E+02  0.1487E+02
    -21.899  0.3008E+02  0.1529E+02
    -21.885  0.3001E+02  0.1571E+02
    -21.871  0.2990E+02  0.1613E+02
    -21.857  0.2977E+02  0.1654E+02
    -21.843  0.2961E+02  0.1695E+02
    -21.829  0.2943E+02  0.1736E+02
    -21.815  0.2924E+02  0.1777E+02
    -21.801  0.2903E+02  0.1818E+02
    -21.787  0.2881E+02  0.1858E+02
    -21.773  0.2857E+02  0.1898E+02
    -21.760  0.2833E+02  0.1937E+02
    -21.746  0.2808E+02  0.1976E+02
    -21.732  0.2782E+02  0.2015E+02
    -21.718  0.2757E+02  0.2054E+02
    -21.704  0.2733E+02  0.2092E+02
    -21.690  0.2709E+02  0.2129E+02
    -21.676  0.2688E+02  0.2167E+02
    -21.662  0.2669E+02  0.2204E+02
    -21.648  0.2653E+02  0.2241E+02
    -21.634  0.2642E+02  0.2278E+02
    -21.620  0.2635E+02  0.2315E+02
    -21.606  0.2633E+02  0.2351E+02
    -21.592  0.2637E+02  0.2388E+02
    -21.578  0.2647E+02  0.2425E+02
    -21.564  0.2664E+02  0.2462E+02
    -21.550  0.2686E+02  0.2500E+02
    -21.536  0.2715E+02  0.2537E+02
    -21.523  0.2750E+02  0.2576E+02
    -21.509  0.2790E+02  0.2615E+02
    -21.495  0.2835E+02  0.2654E+02
    -21.481  0.2883E+02  0.2694E+02
    -21.467  0.2935E+02  0.2735E+02
    -21.453  0.2988E+02  0.2777E+02
    -21.439  0.3043E+02  0.2819E+02
    -21.425  0.3098E+02  0.2863E+02
    -21.411  0.3152E+02  0.2907E+02
    -21.397  0.3204E+02  0.2951E+02
    -21.383  0.3254E+02  0.2997E+02
    -21.369  0.3302E+02  0.3043E+02
    -21.355  0.3346E+02  0.3089E+02
    -21.341  0.3387E+02  0.3137E+02
    -21.327  0.3424E+02  0.3184E+02
    -21.313  0.3457E+02  0.3232E+02
    -21.299  0.3487E+02  0.3281E+02
    -21.286  0.3513E+02  0.3330E+02
    -21.272  0.3535E+02  0.3379E+02
    -21.258  0.3554E+02  0.3429E+02
    -21.244  0.3570E+02  0.3479E+02
    -21.230  0.3583E+02  0.3529E+02
    -21.216  0.3593E+02  0.3579E+02
    -21.202  0.3600E+02  0.3629E+02
    -21.188  0.3605E+02  0.3679E+02
    -21.174  0.3608E+02  0.3729E+02
    -21.160  0.3609E+02  0.3780E+02
    -21.146  0.3609E+02  0.3830E+02
    -21.132  0.3607E+02  0.3880E+02
    -21.118  0.3603E+02  0.3931E+02
    -21.104  0.3599E+02  0.3981E+02
    -21.090  0.3594E+02  0.4031E+02
    -21.076  0.3588E+02  0.4081E+02
    -21.062  0.3583E+02  0.4131E+02
    -21.048  0.3576E+02  0.4181E+02
    -21.035  0.3570E+02  0.4231E+02
    -21.021  0.3564E+02  0.4280E+02
    -21.007  0.3557E+02  0.4330E+02
    -20.993  0.3551E+02  0.4379E+02
    -20.979  0.3543E+02  0.4429E+02
    -20.965  0.3535E+02  0.4478E+02
    -20.951  0.3525E+02  0.4527E+02
    -20.937  0.3515E+02  0.4576E+02
    -20.923  0.3502E+02  0.4625E+02
    -20.909  0.3487E+02  0.4674E+02
    -20.895  0.3471E+02  0.4722E+02
    -20.881  0.3452E+02  0.4770E+02
    -20.867  0.3431E+02  0.4818E+02
    -20.853  0.3407E+02  0.4865E+02
    -20.839  0.3382E+02  0.4913E+02
    -20.825  0.3356E+02  0.4959E+02
    -20.811  0.3328E+02  0.5006E+02
    -20.798  0.3300E+02  0.5052E+02
    -20.784  0.3272E+02  0.5097E+02
    -20.770  0.3244E+02  0.5143E+02
    -20.756  0.3217E+02  0.5188E+02
    -20.742  0.3191E+02  0.5232E+02
    -20.728  0.3165E+02  0.5276E+02
    -20.714  0.3142E+02  0.5320E+02
    -20.700  0.3120E+02  0.5363E+02
    -20.686  0.3099E+02  0.5407E+02
    -20.672  0.3079E+02  0.5450E+02
    -20.658  0.3061E+02  0.5492E+02
    -20.644  0.3044E+02  0.5535E+02
    -20.630  0.3028E+02  0.5577E+02
    -20.616  0.3012E+02  0.5619E+02
    -20.602  0.2997E+02  0.5661E+02
    -20.588  0.2984E+02  0.5702E+02
    -20.574  0.2971E+02  0.5744E+02
    -20.561  0.2959E+02  0.5785E+02
    -20.547  0.2949E+02  0.5826E+02
    -20.533  0.2940E+02  0.5867E+02
    -20.519  0.2934E+02  0.5908E+02
    -20.505  0.2930E+02  0.5949E+02
    -20.491  0.2928E+02  0.5990E+02
    -20.477  0.2930E+02  0.6030E+02
    -20.463  0.2934E+02  0.6071E+02
    -20.449  0.2943E+02  0.6112E+02
    -20.435  0.2955E+02  0.6154E+02
    -20.421  0.2970E+02  0.6195E+02
    -20.407  0.2989E+02  0.6237E+02
    -20.393  0.3012E+02  0.6279E+02
    -20.379  0.3037E+02  0.6321E+02
    -20.365  0.3065E+02  0.6364E+02
    -20.351  0.3096E+02  0.6407E+02
    -20.337  0.3128E+02  0.6451E+02
    -20.324  0.3162E+02  0.6495E+02
    -20.310  0.3197E+02  0.6539E+02
    -20.296  0.3232E+02  0.6584E+02
    -20.282  0.3268E+02  0.6630E+02
    -20.268  0.3304E+02  0.6676E+02
    -20.254  0.3339E+02  0.6722E+02
    -20.240  0.3373E+02  0.6769E+02
    -20.226  0.3406E+02  0.6817E+02
    -20.212  0.3438E+02  0.6865E+02
    -20.198  0.3469E+02  0.6913E+02
    -20.184  0.3499E+02  0.6962E+02
    -20.170  0.3526E+02  0.7011E+02
    -20.156  0.3552E+02  0.7061E+02
    -20.142  0.3577E+02  0.7111E+02
    -20.128  0.3599E+02  0.7161E+02
    -20.114  0.3619E+02  0.7211E+02
    -20.100  0.3637E+02  0.7262E+02
    -20.086  0.3653E+02  0.7313E+02
    -20.073  0.3666E+02  0.7364E+02
    -20.059  0.3677E+02  0.7415E+02
    -20.045  0.3684E+02  0.7467E+02
    -20.031  0.3689E+02  0.7518E+02
    -20.017  0.3690E+02  0.7569E+02
    -20.003  0.3688E+02  0.7621E+02
    -19.989  0.3683E+02  0.7672E+02
    -19.975  0.3674E+02  0.7723E+02
    -19.961  0.3662E+02  0.7775E+02
    -19.947  0.3647E+02  0.7825E+02
    -19.933  0.3629E+02  0.7876E+02
    -19.919  0.3607E+02  0.7926E+02
    -19.905  0.3583E+02  0.7976E+02
    -19.891  0.3557E+02  0.8026E+02
    -19.877  0.3529E+02  0.8075E+02
    -19.863  0.3500E+02  0.8124E+02
    -19.849  0.3470E+02  0.8172E+02
    -19.836  0.3440E+02  0.8220E+02
    -19.822  0.3410E+02  0.8268E+02
    -19.808  0.3381E+02  0.8315E+02
    -19.794  0.3354E+02  0.8362E+02
    -19.780  0.3330E+02  0.8408E+02
    -19.766  0.3309E+02  0.8454E+02
    -19.752  0.3291E+02  0.8500E+02
    -19.738  0.3277E+02  0.8546E+02
    -19.724  0.3267E+02  0.8591E+02
    -19.710  0.3261E+02  0.8637E+02
    -19.696  0.3261E+02  0.8682E+02
    -19.682  0.3264E+02  0.8728E+02
    -19.668  0.3272E+02  0.8773E+02
    -19.654  0.3284E+02  0.8819E+02
    -19.640  0.3299E+02  0.8865E+02
    -19.626  0.3318E+02  0.8911E+02
    -19.612  0.3338E+02  0.8958E+02
    -19.599  0.3361E+02  0.9005E+02
    -19.585  0.3385E+02  0.9052E+02
    -19.571  0.3410E+02  0.9099E+02
    -19.557  0.3435E+02  0.9147E+02
    -19.543  0.3459E+02  0.9196E+02
    -19.529  0.3482E+02  0.9244E+02
    -19.515  0.3503E+02  0.9293E+02
    -19.501  0.3523E+02  0.9342E+02
    -19.487  0.3541E+02  0.9391E+02
    -19.473  0.3556E+02  0.9441E+02
    -19.459  0.3569E+02  0.9491E+02
    -19.445  0.3580E+02  0.9541E+02
    -19.431  0.3588E+02  0.9591E+02
    -19.417  0.3594E+02  0.9641E+02
    -19.403  0.3598E+02  0.9691E+02
    -19.389  0.3600E+02  0.9741E+02
    -19.375  0.3599E+02  0.9791E+02
    -19.362  0.3596E+02  0.9842E+02
    -19.348  0.3592E+02  0.9892E+02
    -19.334  0.3585E+02  0.9942E+02
    -19.320  0.3577E+02  0.9991E+02
    -19.306  0.3567E+02  0.1004E+03
    -19.292  0.3555E+02  0.1009E+03
    -19.278  0.3541E+02  0.1014E+03
    -19.264  0.3527E+02  0.1019E+03
    -19.250  0.3512E+02  0.1024E+03
    -19.236  0.3496E+02  0.1029E+03
    -19.222  0.3479E+02  0.1034E+03
    -19.208  0.3463E+02  0.1038E+03
    -19.194  0.3448E+02  0.1043E+03
    -19.180  0.3433E+02  0.1048E+03
    -19.166  0.3420E+02  0.1053E+03
    -19.152  0.3409E+02  0.1057E+03
    -19.138  0.3401E+02  0.1062E+03
    -19.124  0.3395E+02  0.1067E+03
    -19.111  0.3392E+02  0.1072E+03
    -19.097  0.3392E+02  0.1076E+03
    -19.083  0.3395E+02  0.1081E+03
    -19.069  0.3402E+02  0.1086E+03
    -19.055  0.3411E+02  0.1091E+03
    -19.041  0.3424E+02  0.1095E+03
    -19.027  0.3439E+02  0.1100E+03
    -19.013  0.3457E+02  0.1105E+03
    -18.999  0.3476E+02  0.1110E+03
    -18.985  0.3497E+02  0.1115E+03
    -18.971  0.3519E+02  0.1120E+03
    -18.957  0.3541E+02  0.1125E+03
    -18.943  0.3564E+02  0.1130E+03
    -18.929  0.3586E+02  0.1135E+03
    -18.915  0.3607E+02  0.1140E+03
    -18.901  0.3627E+02  0.1145E+03
    -18.887  0.3646E+02  0.1150E+03
    -18.874  0.3663E+02  0.1155E+03
    -18.860  0.3677E+02  0.1160E+03
    -18.846  0.3689E+02  0.1165E+03
    -18.832  0.3699E+02  0.1170E+03
    -18.818  0.3707E+02  0.1175E+03
    -18.804  0.3712E+02  0.1181E+03
    -18.790  0.3714E+02  0.1186E+03
    -18.776  0.3715E+02  0.1191E+03
    -18.762  0.3713E+02  0.1196E+03
    -18.748  0.3709E+02  0.1201E+03
    -18.734  0.3703E+02  0.1206E+03
    -18.720  0.3696E+02  0.1212E+03
    -18.706  0.3688E+02  0.1217E+03
    -18.692  0.3678E+02  0.1222E+03
    -18.678  0.3669E+02  0.1227E+03
    -18.664  0.3659E+02  0.1232E+03
    -18.650  0.3649E+02  0.1237E+03
    -18.637  0.3639E+02  0.1242E+03
    -18.623  0.3631E+02  0.1247E+03
    -18.609  0.3624E+02  0.1252E+03
    -18.595  0.3618E+02  0.1257E+03
    -18.581  0.3615E+02  0.1262E+03
    -18.567  0.3613E+02  0.1268E+03
    -18.553  0.3614E+02  0.1273E+03
    -18.539  0.3617E+02  0.1278E+03
    -18.525  0.3623E+02  0.1283E+03
    -18.511  0.3630E+02  0.1288E+03
    -18.497  0.3640E+02  0.1293E+03
    -18.483  0.3651E+02  0.1298E+03
    -18.469  0.3664E+02  0.1303E+03
    -18.455  0.3677E+02  0.1308E+03
    -18.441  0.3690E+02  0.1313E+03
    -18.427  0.3703E+02  0.1318E+03
    -18.413  0.3715E+02  0.1324E+03
    -18.400  0.3725E+02  0.1329E+03
    -18.386  0.3734E+02  0.1334E+03
    -18.372  0.3740E+02  0.1339E+03
    -18.358  0.3744E+02  0.1344E+03
    -18.344  0.3746E+02  0.1350E+03
    -18.330  0.3745E+02  0.1355E+03
    -18.316  0.3741E+02  0.1360E+03
    -18.302  0.3735E+02  0.1365E+03
    -18.288  0.3727E+02  0.1371E+03
    -18.274  0.3717E+02  0.1376E+03
    -18.260  0.3706E+02  0.1381E+03
    -18.246  0.3694E+02  0.1386E+03
    -18.232  0.3681E+02  0.1391E+03
    -18.218  0.3669E+02  0.1396E+03
    -18.204  0.3657E+02  0.1401E+03
    -18.190  0.3645E+02  0.1406E+03
    -18.176  0.3634E+02  0.1411E+03
    -18.162  0.3625E+02  0.1417E+03
    -18.149  0.3616E+02  0.1422E+03
    -18.135  0.3608E+02  0.1427E+03
    -18.121  0.3601E+02  0.1432E+03
    -18.107  0.3594E+02  0.1437E+03
    -18.093  0.3588E+02  0.1442E+03
    -18.079  0.3582E+02  0.1447E+03
    -18.065  0.3576E+02  0.1452E+03
    -18.051  0.3571E+02  0.1457E+03
    -18.037  0.3565E+02  0.1462E+03
    -18.023  0.3559E+02  0.1467E+03
    -18.009  0.3553E+02  0.1471E+03
    -17.995  0.3547E+02  0.1476E+03
    -17.981  0.3542E+02  0.1481E+03
    -17.967  0.3537E+02  0.1486E+03
    -17.953  0.3533E+02  0.1491E+03
    -17.939  0.3531E+02  0.1496E+03
    -17.925  0.3530E+02  0.1501E+03
    -17.912  0.3532E+02  0.1506E+03
    -17.898  0.3537E+02  0.1511E+03
    -17.884  0.3544E+02  0.1516E+03
    -17.870  0.3554E+02  0.1521E+03
    -17.856  0.3568E+02  0.1526E+03
    -17.842  0.3585E+02  0.1531E+03
    -17.828  0.3605E+02  0.1536E+03
    -17.814  0.3628E+02  0.1541E+03
    -17.800  0.3653E+02  0.1546E+03
    -17.786  0.3680E+02  0.1551E+03
    -17.772  0.3709E+02  0.1556E+03
    -17.758  0.3738E+02  0.1561E+03
    -17.744  0.3768E+02  0.1567E+03
    -17.730  0.3797E+02  0.1572E+03
    -17.716  0.3826E+02  0.1577E+03
    -17.702  0.3852E+02  0.1583E+03
    -17.688  0.3877E+02  0.1588E+03
    -17.675  0.3899E+02  0.1594E+03
    -17.661  0.3918E+02  0.1599E+03
    -17.647  0.3934E+02  0.1605E+03
    -17.633  0.3946E+02  0.1610E+03
    -17.619  0.3955E+02  0.1616E+03
    -17.605  0.3959E+02  0.1621E+03
    -17.591  0.3960E+02  0.1627E+03
    -17.577  0.3958E+02  0.1632E+03
    -17.563  0.3952E+02  0.1638E+03
    -17.549  0.3942E+02  0.1643E+03
    -17.535  0.3930E+02  0.1649E+03
    -17.521  0.3915E+02  0.1654E+03
    -17.507  0.3897E+02  0.1659E+03
    -17.493  0.3877E+02  0.1665E+03
    -17.479  0.3856E+02  0.1670E+03
    -17.465  0.3834E+02  0.1676E+03
    -17.451  0.3811E+02  0.1681E+03
    -17.438  0.3789E+02  0.1686E+03
    -17.424  0.3766E+02  0.1691E+03
    -17.410  0.3745E+02  0.1697E+03
    -17.396  0.3725E+02  0.1702E+03
    -17.382  0.3707E+02  0.1707E+03
    -17.368  0.3691E+02  0.1712E+03
    -17.354  0.3677E+02  0.1717E+03
    -17.340  0.3666E+02  0.1722E+03
    -17.326  0.3657E+02  0.1728E+03
    -17.312  0.3651E+02  0.1733E+03
    -17.298  0.3648E+02  0.1738E+03
    -17.284  0.3647E+02  0.1743E+03
    -17.270  0.3648E+02  0.1748E+03
    -17.256  0.3651E+02  0.1753E+03
    -17.242  0.3656E+02  0.1758E+03
    -17.228  0.3663E+02  0.1763E+03
    -17.214  0.3670E+02  0.1768E+03
    -17.200  0.3679E+02  0.1773E+03
    -17.187  0.3688E+02  0.1779E+03
    -17.173  0.3698E+02  0.1784E+03
    -17.159  0.3708E+02  0.1789E+03
    -17.145  0.3718E+02  0.1794E+03
    -17.131  0.3728E+02  0.1799E+03
    -17.117  0.3738E+02  0.1804E+03
    -17.103  0.3747E+02  0.1810E+03
    -17.089  0.3755E+02  0.1815E+03
    -17.075  0.3763E+02  0.1820E+03
    -17.061  0.3770E+02  0.1825E+03
    -17.047  0.3775E+02  0.1831E+03
    -17.033  0.3779E+02  0.1836E+03
    -17.019  0.3782E+02  0.1841E+03
    -17.005  0.3783E+02  0.1847E+03
    -16.991  0.3782E+02  0.1852E+03
    -16.977  0.3780E+02  0.1857E+03
    -16.963  0.3776E+02  0.1862E+03
    -16.950  0.3770E+02  0.1868E+03
    -16.936  0.3763E+02  0.1873E+03
    -16.922  0.3754E+02  0.1878E+03
    -16.908  0.3744E+02  0.1883E+03
    -16.894  0.3733E+02  0.1888E+03
    -16.880  0.3721E+02  0.1894E+03
    -16.866  0.3709E+02  0.1899E+03
    -16.852  0.3697E+02  0.1904E+03
    -16.838  0.3685E+02  0.1909E+03
    -16.824  0.3674E+02  0.1914E+03
    -16.810  0.3663E+02  0.1919E+03
    -16.796  0.3653E+02  0.1924E+03
    -16.782  0.3644E+02  0.1930E+03
    -16.768  0.3635E+02  0.1935E+03
    -16.754  0.3627E+02  0.1940E+03
    -16.740  0.3620E+02  0.1945E+03
    -16.726  0.3613E+02  0.1950E+03
    -16.713  0.3606E+02  0.1955E+03
    -16.699  0.3598E+02  0.1960E+03
    -16.685  0.3589E+02  0.1965E+03
    -16.671  0.3579E+02  0.1970E+03
    -16.657  0.3567E+02  0.1975E+03
    -16.643  0.3553E+02  0.1980E+03
    -16.629  0.3537E+02  0.1985E+03
    -16.615  0.3518E+02  0.1990E+03
    -16.601  0.3497E+02  0.1994E+03
    -16.587  0.3474E+02  0.1999E+03
    -16.573  0.3449E+02  0.2004E+03
    -16.559  0.3422E+02  0.2009E+03
    -16.545  0.3394E+02  0.2014E+03
    -16.531  0.3366E+02  0.2018E+03
    -16.517  0.3337E+02  0.2023E+03
    -16.503  0.3310E+02  0.2028E+03
    -16.489  0.3284E+02  0.2032E+03
    -16.476  0.3260E+02  0.2037E+03
    -16.462  0.3238E+02  0.2041E+03
    -16.448  0.3220E+02  0.2046E+03
    -16.434  0.3206E+02  0.2050E+03
    -16.420  0.3195E+02  0.2055E+03
    -16.406  0.3189E+02  0.2059E+03
    -16.392  0.3187E+02  0.2063E+03
    -16.378  0.3190E+02  0.2068E+03
    -16.364  0.3196E+02  0.2072E+03
    -16.350  0.3206E+02  0.2077E+03
    -16.336  0.3220E+02  0.2081E+03
    -16.322  0.3236E+02  0.2086E+03
    -16.308  0.3255E+02  0.2090E+03
    -16.294  0.3276E+02  0.2095E+03
    -16.280  0.3298E+02  0.2100E+03
    -16.266  0.3321E+02  0.2104E+03
    -16.252  0.3345E+02  0.2109E+03
    -16.238  0.3368E+02  0.2114E+03
    -16.225  0.3390E+02  0.2118E+03
    -16.211  0.3412E+02  0.2123E+03
    -16.197  0.3432E+02  0.2128E+03
    -16.183  0.3451E+02  0.2133E+03
    -16.169  0.3468E+02  0.2137E+03
    -16.155  0.3484E+02  0.2142E+03
    -16.141  0.3498E+02  0.2147E+03
    -16.127  0.3511E+02  0.2152E+03
    -16.113  0.3522E+02  0.2157E+03
    -16.099  0.3533E+02  0.2162E+03
    -16.085  0.3542E+02  0.2167E+03
    -16.071  0.3551E+02  0.2172E+03
    -16.057  0.3559E+02  0.2177E+03
    -16.043  0.3567E+02  0.2182E+03
    -16.029  0.3575E+02  0.2187E+03
    -16.015  0.3582E+02  0.2192E+03
    -16.001  0.3590E+02  0.2197E+03
    -15.988  0.3597E+02  0.2202E+03
    -15.974  0.3605E+02  0.2207E+03
    -15.960  0.3613E+02  0.2212E+03
    -15.946  0.3621E+02  0.2217E+03
    -15.932  0.3629E+02  0.2222E+03
    -15.918  0.3637E+02  0.2227E+03
    -15.904  0.3645E+02  0.2232E+03
    -15.890  0.3652E+02  0.2237E+03
    -15.876  0.3658E+02  0.2242E+03
    -15.862  0.3664E+02  0.2247E+03
    -15.848  0.3668E+02  0.2252E+03
    -15.834  0.3671E+02  0.2258E+03
    -15.820  0.3673E+02  0.2263E+03
    -15.806  0.3673E+02  0.2268E+03
    -15.792  0.3670E+02  0.2273E+03
    -15.778  0.3666E+02  0.2278E+03
    -15.764  0.3659E+02  0.2283E+03
    -15.751  0.3650E+02  0.2288E+03
    -15.737  0.3638E+02  0.2293E+03
    -15.723  0.3624E+02  0.2298E+03
    -15.709  0.3608E+02  0.2303E+03
    -15.695  0.3590E+02  0.2308E+03
    -15.681  0.3569E+02  0.2313E+03
    -15.667  0.3548E+02  0.2318E+03
    -15.653  0.3525E+02  0.2323E+03
    -15.639  0.3501E+02  0.2328E+03
    -15.625  0.3477E+02  0.2333E+03
    -15.611  0.3453E+02  0.2338E+03
    -15.597  0.3430E+02  0.2343E+03
    -15.583  0.3408E+02  0.2347E+03
    -15.569  0.3388E+02  0.2352E+03
    -15.555  0.3371E+02  0.2357E+03
    -15.541  0.3357E+02  0.2361E+03
    -15.527  0.3346E+02  0.2366E+03
    -15.514  0.3339E+02  0.2371E+03
    -15.500  0.3336E+02  0.2375E+03
    -15.486  0.3338E+02  0.2380E+03
    -15.472  0.3344E+02  0.2385E+03
    -15.458  0.3356E+02  0.2389E+03
    -15.444  0.3372E+02  0.2394E+03
    -15.430  0.3393E+02  0.2399E+03
    -15.416  0.3418E+02  0.2404E+03
    -15.402  0.3448E+02  0.2408E+03
    -15.388  0.3481E+02  0.2413E+03
    -15.374  0.3516E+02  0.2418E+03
    -15.360  0.3554E+02  0.2423E+03
    -15.346  0.3593E+02  0.2428E+03
    -15.332  0.3632E+02  0.2433E+03
    -15.318  0.3671E+02  0.2438E+03
    -15.304  0.3708E+02  0.2443E+03
    -15.290  0.3742E+02  0.2449E+03
    -15.276  0.3773E+02  0.2454E+03
    -15.263  0.3800E+02  0.2459E+03
    -15.249  0.3823E+02  0.2465E+03
    -15.235  0.3840E+02  0.2470E+03
    -15.221  0.3853E+02  0.2475E+03
    -15.207  0.3860E+02  0.2481E+03
    -15.193  0.3862E+02  0.2486E+03
    -15.179  0.3859E+02  0.2491E+03
    -15.165  0.3852E+02  0.2497E+03
    -15.151  0.3842E+02  0.2502E+03
    -15.137  0.3828E+02  0.2508E+03
    -15.123  0.3813E+02  0.2513E+03
    -15.109  0.3795E+02  0.2518E+03
    -15.095  0.3778E+02  0.2523E+03
    -15.081  0.3760E+02  0.2529E+03
    -15.067  0.3743E+02  0.2534E+03
    -15.053  0.3727E+02  0.2539E+03
    -15.039  0.3712E+02  0.2544E+03
    -15.026  0.3700E+02  0.2549E+03
    -15.012  0.3689E+02  0.2555E+03
    -14.998  0.3680E+02  0.2560E+03
    -14.984  0.3673E+02  0.2565E+03
    -14.970  0.3667E+02  0.2570E+03
    -14.956  0.3663E+02  0.2575E+03
    -14.942  0.3659E+02  0.2580E+03
    -14.928  0.3656E+02  0.2585E+03
    -14.914  0.3653E+02  0.2590E+03
    -14.900  0.3650E+02  0.2595E+03
    -14.886  0.3646E+02  0.2600E+03
    -14.872  0.3641E+02  0.2606E+03
    -14.858  0.3636E+02  0.2611E+03
    -14.844  0.3630E+02  0.2616E+03
    -14.830  0.3622E+02  0.2621E+03
    -14.816  0.3614E+02  0.2626E+03
    -14.802  0.3605E+02  0.2631E+03
    -14.789  0.3595E+02  0.2636E+03
    -14.775  0.3585E+02  0.2641E+03
    -14.761  0.3575E+02  0.2646E+03
    -14.747  0.3565E+02  0.2651E+03
    -14.733  0.3555E+02  0.2656E+03
    -14.719  0.3546E+02  0.2661E+03
    -14.705  0.3538E+02  0.2666E+03
    -14.691  0.3531E+02  0.2671E+03
    -14.677  0.3526E+02  0.2675E+03
    -14.663  0.3522E+02  0.2680E+03
    -14.649  0.3519E+02  0.2685E+03
    -14.635  0.3518E+02  0.2690E+03
    -14.621  0.3518E+02  0.2695E+03
    -14.607  0.3520E+02  0.2700E+03
    -14.593  0.3524E+02  0.2705E+03
    -14.579  0.3528E+02  0.2710E+03
    -14.565  0.3533E+02  0.2715E+03
    -14.552  0.3539E+02  0.2720E+03
    -14.538  0.3546E+02  0.2725E+03
    -14.524  0.3552E+02  0.2730E+03
    -14.510  0.3559E+02  0.2735E+03
    -14.496  0.3565E+02  0.2739E+03
    -14.482  0.3571E+02  0.2744E+03
    -14.468  0.3577E+02  0.2749E+03
    -14.454  0.3582E+02  0.2754E+03
    -14.440  0.3587E+02  0.2759E+03
    -14.426  0.3591E+02  0.2764E+03
    -14.412  0.3595E+02  0.2769E+03
    -14.398  0.3599E+02  0.2774E+03
    -14.384  0.3603E+02  0.2779E+03
    -14.370  0.3608E+02  0.2785E+03
    -14.356  0.3612E+02  0.2790E+03
    -14.342  0.3617E+02  0.2795E+03
    -14.328  0.3622E+02  0.2800E+03
    -14.315  0.3628E+02  0.2805E+03
    -14.301  0.3633E+02  0.2810E+03
    -14.287  0.3639E+02  0.2815E+03
    -14.273  0.3645E+02  0.2820E+03
    -14.259  0.3650E+02  0.2825E+03
    -14.245  0.3654E+02  0.2830E+03
    -14.231  0.3658E+02  0.2835E+03
    -14.217  0.3660E+02  0.2840E+03
    -14.203  0.3660E+02  0.2845E+03
    -14.189  0.3660E+02  0.2851E+03
    -14.175  0.3657E+02  0.2856E+03
    -14.161  0.3652E+02  0.2861E+03
    -14.147  0.3646E+02  0.2866E+03
    -14.133  0.3638E+02  0.2871E+03
    -14.119  0.3629E+02  0.2876E+03
    -14.105  0.3618E+02  0.2881E+03
    -14.091  0.3607E+02  0.2886E+03
    -14.077  0.3594E+02  0.2891E+03
    -14.064  0.3582E+02  0.2896E+03
    -14.050  0.3570E+02  0.2901E+03
    -14.036  0.3557E+02  0.2906E+03
    -14.022  0.3546E+02  0.2911E+03
    -14.008  0.3536E+02  0.2916E+03
    -13.994  0.3527E+02  0.2921E+03
    -13.980  0.3520E+02  0.2926E+03
    -13.966  0.3515E+02  0.2931E+03
    -13.952  0.3512E+02  0.2935E+03
    -13.938  0.3512E+02  0.2940E+03
    -13.924  0.3515E+02  0.2945E+03
    -13.910  0.3520E+02  0.2950E+03
    -13.896  0.3529E+02  0.2955E+03
    -13.882  0.3541E+02  0.2960E+03
    -13.868  0.3556E+02  0.2965E+03
    -13.854  0.3575E+02  0.2970E+03
    -13.840  0.3597E+02  0.2975E+03
    -13.827  0.3621E+02  0.2980E+03
    -13.813  0.3648E+02  0.2985E+03
    -13.799  0.3677E+02  0.2990E+03
    -13.785  0.3707E+02  0.2995E+03
    -13.771  0.3739E+02  0.3001E+03
    -13.757  0.3770E+02  0.3006E+03
    -13.743  0.3801E+02  0.3011E+03
    -13.729  0.3830E+02  0.3016E+03
    -13.715  0.3857E+02  0.3022E+03
    -13.701  0.3881E+02  0.3027E+03
    -13.687  0.3902E+02  0.3033E+03
    -13.673  0.3919E+02  0.3038E+03
    -13.659  0.3932E+02  0.3044E+03
    -13.645  0.3940E+02  0.3049E+03
    -13.631  0.3944E+02  0.3055E+03
    -13.617  0.3943E+02  0.3060E+03
    -13.603  0.3939E+02  0.3066E+03
    -13.590  0.3931E+02  0.3071E+03
    -13.576  0.3921E+02  0.3077E+03
    -13.562  0.3907E+02  0.3082E+03
    -13.548  0.3893E+02  0.3087E+03
    -13.534  0.3877E+02  0.3093E+03
    -13.520  0.3861E+02  0.3098E+03
    -13.506  0.3845E+02  0.3104E+03
    -13.492  0.3831E+02  0.3109E+03
    -13.478  0.3817E+02  0.3114E+03
    -13.464  0.3806E+02  0.3120E+03
    -13.450  0.3797E+02  0.3125E+03
    -13.436  0.3790E+02  0.3130E+03
    -13.422  0.3786E+02  0.3135E+03
    -13.408  0.3785E+02  0.3141E+03
    -13.394  0.3786E+02  0.3146E+03
    -13.380  0.3790E+02  0.3151E+03
    -13.366  0.3796E+02  0.3157E+03