 189 189   0   0
  0.5192772E+02  0.2524797E-08  0.1943590E-08  0.2000000E-08  0.5000000E-15
  1.000000000000000E-004
  CAR 
 unknown system                          
      3.71093264    -24.43435179 2000     -3.49612909      1.00000000
    -24.434  0.0000E+00  0.0000E+00
    -24.420  0.0000E+00  0.0000E+00
    -24.406  0.0000E+00  0.0000E+00
    -24.392  0.0000E+00  0.0000E+00
    -24.378  0.0000E+00  0.0000E+00
    -24.364  0.0000E+00  0.0000E+00
    -24.350  0.0000E+00  0.0000E+00
    -24.336  0.0000E+00  0.0000E+00
    -24.322  0.0000E+00  0.0000E+00
    -24.308  0.0000E+00  0.0000E+00
    -24.294  0.0000E+00  0.0000E+00
    -24.279  0.0000E+00  0.0000E+00
    -24.265  0.0000E+00  0.0000E+00
    -24.251  0.0000E+00  0.0000E+00
    -24.237  0.0000E+00  0.0000E+00
    -24.223  0.0000E+00  0.0000E+00
    -24.209  0.0000E+00  0.0000E+00
    -24.195  0.0000E+00  0.0000E+00
    -24.181  0.0000E+00  0.0000E+00
    -24.167  0.0000E+00  0.0000E+00
    -24.153  0.0000E+00  0.0000E+00
    -24.139  0.0000E+00  0.0000E+00
    -24.125  0.0000E+00  0.0000E+00
    -24.111  0.0000E+00  0.0000E+00
    -24.096  0.0000E+00  0.0000E+00
    -24.082  0.0000E+00  0.0000E+00
    -24.068  0.0000E+00  0.0000E+00
    -24.054  0.0000E+00  0.0000E+00
    -24.040  0.0000E+00  0.0000E+00
    -24.026  0.0000E+00  0.0000E+00
    -24.012  0.0000E+00  0.0000E+00
    -23.998  0.0000E+00  0.0000E+00
    -23.984  0.0000E+00  0.0000E+00
    -23.970  0.0000E+00  0.0000E+00
    -23.956  0.0000E+00  0.0000E+00
    -23.942  0.0000E+00  0.0000E+00
    -23.927  0.0000E+00  0.0000E+00
    -23.913  0.0000E+00  0.0000E+00
    -23.899  0.0000E+00  0.0000E+00
    -23.885  0.0000E+00  0.0000E+00
    -23.871  0.0000E+00  0.0000E+00
    -23.857  0.0000E+00  0.0000E+00
    -23.843  0.0000E+00  0.0000E+00
    -23.829  0.0000E+00  0.0000E+00
    -23.815  0.0000E+00  0.0000E+00
    -23.801  0.0000E+00  0.0000E+00
    -23.787  0.0000E+00  0.0000E+00
    -23.773  0.0000E+00  0.0000E+00
    -23.759  0.0000E+00  0.0000E+00
    -23.744  0.0000E+00  0.0000E+00
    -23.730  0.0000E+00  0.0000E+00
    -23.716  0.0000E+00  0.0000E+00
    -23.702  0.0000E+00  0.0000E+00
    -23.688  0.0000E+00  0.0000E+00
    -23.674  0.0000E+00  0.0000E+00
    -23.660  0.0000E+00  0.0000E+00
    -23.646  0.0000E+00  0.0000E+00
    -23.632  0.0000E+00  0.0000E+00
    -23.618  0.7885E-14  0.1110E-15
    -23.604  0.0000E+00  0.1110E-15
    -23.590  0.1577E-13  0.3331E-15
    -23.575  0.2366E-13  0.6661E-15
    -23.561  0.6308E-13  0.1554E-14
    -23.547  0.1367E-12  0.3479E-14
    -23.533  0.2961E-12  0.7648E-14
    -23.519  0.6483E-12  0.1678E-13
    -23.505  0.1387E-11  0.3630E-13
    -23.491  0.2942E-11  0.7773E-13
    -23.477  0.6188E-11  0.1649E-12
    -23.463  0.1289E-10  0.3463E-12
    -23.449  0.2658E-10  0.7205E-12
    -23.435  0.5427E-10  0.1485E-11
    -23.421  0.1097E-09  0.3029E-11
    -23.407  0.2196E-09  0.6121E-11
    -23.392  0.4352E-09  0.1225E-10
    -23.378  0.8541E-09  0.2427E-10
    -23.364  0.1660E-08  0.4764E-10
    -23.350  0.3193E-08  0.9260E-10
    -23.336  0.6083E-08  0.1782E-09
    -23.322  0.1147E-07  0.3398E-09
    -23.308  0.2143E-07  0.6415E-09
    -23.294  0.3962E-07  0.1199E-08
    -23.280  0.7255E-07  0.2221E-08
    -23.266  0.1315E-06  0.4073E-08
    -23.252  0.2361E-06  0.7397E-08
    -23.238  0.4196E-06  0.1331E-07
    -23.223  0.7385E-06  0.2370E-07
    -23.209  0.1287E-05  0.4182E-07
    -23.195  0.2220E-05  0.7308E-07
    -23.181  0.3793E-05  0.1265E-06
    -23.167  0.6416E-05  0.2168E-06
    -23.153  0.1075E-04  0.3681E-06
    -23.139  0.1782E-04  0.6190E-06
    -23.125  0.2926E-04  0.1031E-05
    -23.111  0.4757E-04  0.1701E-05
    -23.097  0.7658E-04  0.2779E-05
    -23.083  0.1221E-03  0.4498E-05
    -23.069  0.1926E-03  0.7210E-05
    -23.055  0.3010E-03  0.1145E-04
    -23.040  0.4658E-03  0.1801E-04
    -23.026  0.7136E-03  0.2805E-04
    -23.012  0.1083E-02  0.4330E-04
    -22.998  0.1626E-02  0.6619E-04
    -22.984  0.2418E-02  0.1002E-03
    -22.970  0.3561E-02  0.1504E-03
    -22.956  0.5192E-02  0.2235E-03
    -22.942  0.7496E-02  0.3290E-03
    -22.928  0.1072E-01  0.4799E-03
    -22.914  0.1517E-01  0.6934E-03
    -22.900  0.2126E-01  0.9927E-03
    -22.886  0.2950E-01  0.1408E-02
    -22.872  0.4053E-01  0.1979E-02
    -22.857  0.5514E-01  0.2755E-02
    -22.843  0.7429E-01  0.3801E-02
    -22.829  0.9910E-01  0.5196E-02
    -22.815  0.1309E+00  0.7039E-02
    -22.801  0.1712E+00  0.9450E-02
    -22.787  0.2217E+00  0.1257E-01
    -22.773  0.2844E+00  0.1658E-01
    -22.759  0.3611E+00  0.2166E-01
    -22.745  0.4541E+00  0.2805E-01
    -22.731  0.5655E+00  0.3601E-01
    -22.717  0.6973E+00  0.4583E-01
    -22.703  0.8516E+00  0.5782E-01
    -22.688  0.1030E+01  0.7233E-01
    -22.674  0.1234E+01  0.8970E-01
    -22.660  0.1464E+01  0.1103E+00
    -22.646  0.1720E+01  0.1345E+00
    -22.632  0.2002E+01  0.1627E+00
    -22.618  0.2309E+01  0.1952E+00
    -22.604  0.2637E+01  0.2323E+00
    -22.590  0.2985E+01  0.2744E+00
    -22.576  0.3349E+01  0.3215E+00
    -22.562  0.3723E+01  0.3739E+00
    -22.548  0.4103E+01  0.4317E+00
    -22.534  0.4484E+01  0.4948E+00
    -22.520  0.4859E+01  0.5633E+00
    -22.505  0.5224E+01  0.6368E+00
    -22.491  0.5574E+01  0.7153E+00
    -22.477  0.5904E+01  0.7984E+00
    -22.463  0.6211E+01  0.8859E+00
    -22.449  0.6494E+01  0.9773E+00
    -22.435  0.6751E+01  0.1072E+01
    -22.421  0.6982E+01  0.1171E+01
    -22.407  0.7190E+01  0.1272E+01
    -22.393  0.7378E+01  0.1376E+01
    -22.379  0.7549E+01  0.1482E+01
    -22.365  0.7709E+01  0.1591E+01
    -22.351  0.7864E+01  0.1701E+01
    -22.336  0.8021E+01  0.1814E+01
    -22.322  0.8184E+01  0.1929E+01
    -22.308  0.8362E+01  0.2047E+01
    -22.294  0.8560E+01  0.2168E+01
    -22.280  0.8784E+01  0.2291E+01
    -22.266  0.9039E+01  0.2419E+01
    -22.252  0.9330E+01  0.2550E+01
    -22.238  0.9662E+01  0.2686E+01
    -22.224  0.1004E+02  0.2827E+01
    -22.210  0.1046E+02  0.2975E+01
    -22.196  0.1093E+02  0.3129E+01
    -22.182  0.1146E+02  0.3290E+01
    -22.168  0.1203E+02  0.3459E+01
    -22.153  0.1266E+02  0.3637E+01
    -22.139  0.1333E+02  0.3825E+01
    -22.125  0.1406E+02  0.4023E+01
    -22.111  0.1483E+02  0.4232E+01
    -22.097  0.1565E+02  0.4452E+01
    -22.083  0.1650E+02  0.4685E+01
    -22.069  0.1738E+02  0.4929E+01
    -22.055  0.1828E+02  0.5187E+01
    -22.041  0.1919E+02  0.5457E+01
    -22.027  0.2010E+02  0.5740E+01
    -22.013  0.2100E+02  0.6036E+01
    -21.999  0.2188E+02  0.6344E+01
    -21.984  0.2271E+02  0.6664E+01
    -21.970  0.2350E+02  0.6995E+01
    -21.956  0.2423E+02  0.7336E+01
    -21.942  0.2489E+02  0.7686E+01
    -21.928  0.2548E+02  0.8045E+01
    -21.914  0.2599E+02  0.8411E+01
    -21.900  0.2641E+02  0.8783E+01
    -21.886  0.2674E+02  0.9159E+01
    -21.872  0.2700E+02  0.9539E+01
    -21.858  0.2717E+02  0.9922E+01
    -21.844  0.2728E+02  0.1031E+02
    -21.830  0.2732E+02  0.1069E+02
    -21.816  0.2730E+02  0.1107E+02
    -21.801  0.2724E+02  0.1146E+02
    -21.787  0.2714E+02  0.1184E+02
    -21.773  0.2703E+02  0.1222E+02
    -21.759  0.2689E+02  0.1260E+02
    -21.745  0.2676E+02  0.1298E+02
    -21.731  0.2663E+02  0.1335E+02
    -21.717  0.2652E+02  0.1372E+02
    -21.703  0.2642E+02  0.1410E+02
    -21.689  0.2635E+02  0.1447E+02
    -21.675  0.2631E+02  0.1484E+02
    -21.661  0.2629E+02  0.1521E+02
    -21.647  0.2631E+02  0.1558E+02
    -21.632  0.2635E+02  0.1595E+02
    -21.618  0.2642E+02  0.1632E+02
    -21.604  0.2651E+02  0.1670E+02
    -21.590  0.2662E+02  0.1707E+02
    -21.576  0.2675E+02  0.1745E+02
    -21.562  0.2688E+02  0.1782E+02
    -21.548  0.2701E+02  0.1821E+02
    -21.534  0.2715E+02  0.1859E+02
    -21.520  0.2727E+02  0.1897E+02
    -21.506  0.2739E+02  0.1936E+02
    -21.492  0.2749E+02  0.1974E+02
    -21.478  0.2757E+02  0.2013E+02
    -21.464  0.2763E+02  0.2052E+02
    -21.449  0.2766E+02  0.2091E+02
    -21.435  0.2768E+02  0.2130E+02
    -21.421  0.2767E+02  0.2169E+02
    -21.407  0.2763E+02  0.2208E+02
    -21.393  0.2758E+02  0.2247E+02
    -21.379  0.2751E+02  0.2285E+02
    -21.365  0.2742E+02  0.2324E+02
    -21.351  0.2732E+02  0.2363E+02
    -21.337  0.2721E+02  0.2401E+02
    -21.323  0.2710E+02  0.2439E+02
    -21.309  0.2698E+02  0.2477E+02
    -21.295  0.2687E+02  0.2515E+02
    -21.281  0.2676E+02  0.2553E+02
    -21.266  0.2666E+02  0.2590E+02
    -21.252  0.2657E+02  0.2627E+02
    -21.238  0.2649E+02  0.2665E+02
    -21.224  0.2641E+02  0.2702E+02
    -21.210  0.2635E+02  0.2739E+02
    -21.196  0.2630E+02  0.2776E+02
    -21.182  0.2626E+02  0.2813E+02
    -21.168  0.2623E+02  0.2850E+02
    -21.154  0.2621E+02  0.2887E+02
    -21.140  0.2621E+02  0.2924E+02
    -21.126  0.2622E+02  0.2961E+02
    -21.112  0.2625E+02  0.2998E+02
    -21.097  0.2629E+02  0.3035E+02
    -21.083  0.2636E+02  0.3072E+02
    -21.069  0.2644E+02  0.3109E+02
    -21.055  0.2656E+02  0.3146E+02
    -21.041  0.2669E+02  0.3184E+02
    -21.027  0.2686E+02  0.3222E+02
    -21.013  0.2704E+02  0.3260E+02
    -20.999  0.2726E+02  0.3298E+02
    -20.985  0.2749E+02  0.3337E+02
    -20.971  0.2774E+02  0.3376E+02
    -20.957  0.2801E+02  0.3415E+02
    -20.943  0.2828E+02  0.3455E+02
    -20.929  0.2856E+02  0.3495E+02
    -20.914  0.2882E+02  0.3536E+02
    -20.900  0.2907E+02  0.3577E+02
    -20.886  0.2930E+02  0.3618E+02
    -20.872  0.2951E+02  0.3660E+02
    -20.858  0.2968E+02  0.3702E+02
    -20.844  0.2981E+02  0.3744E+02
    -20.830  0.2990E+02  0.3786E+02
    -20.816  0.2994E+02  0.3828E+02
    -20.802  0.2994E+02  0.3870E+02
    -20.788  0.2991E+02  0.3912E+02
    -20.774  0.2983E+02  0.3954E+02
    -20.760  0.2972E+02  0.3996E+02
    -20.745  0.2958E+02  0.4038E+02
    -20.731  0.2942E+02  0.4079E+02
    -20.717  0.2925E+02  0.4120E+02
    -20.703  0.2906E+02  0.4161E+02
    -20.689  0.2888E+02  0.4202E+02
    -20.675  0.2869E+02  0.4242E+02
    -20.661  0.2852E+02  0.4282E+02
    -20.647  0.2836E+02  0.4322E+02
    -20.633  0.2822E+02  0.4362E+02
    -20.619  0.2810E+02  0.4401E+02
    -20.605  0.2800E+02  0.4441E+02
    -20.591  0.2791E+02  0.4480E+02
    -20.577  0.2785E+02  0.4519E+02
    -20.562  0.2780E+02  0.4559E+02
    -20.548  0.2777E+02  0.4598E+02
    -20.534  0.2775E+02  0.4637E+02
    -20.520  0.2774E+02  0.4676E+02
    -20.506  0.2773E+02  0.4715E+02
    -20.492  0.2772E+02  0.4754E+02
    -20.478  0.2772E+02  0.4793E+02
    -20.464  0.2772E+02  0.4832E+02
    -20.450  0.2772E+02  0.4871E+02
    -20.436  0.2771E+02  0.4910E+02
    -20.422  0.2771E+02  0.4949E+02
    -20.408  0.2770E+02  0.4988E+02
    -20.393  0.2770E+02  0.5027E+02
    -20.379  0.2771E+02  0.5066E+02
    -20.365  0.2772E+02  0.5105E+02
    -20.351  0.2775E+02  0.5144E+02
    -20.337  0.2779E+02  0.5183E+02
    -20.323  0.2785E+02  0.5222E+02
    -20.309  0.2794E+02  0.5262E+02
    -20.295  0.2804E+02  0.5301E+02
    -20.281  0.2818E+02  0.5341E+02
    -20.267  0.2833E+02  0.5381E+02
    -20.253  0.2852E+02  0.5421E+02
    -20.239  0.2872E+02  0.5461E+02
    -20.225  0.2895E+02  0.5502E+02
    -20.210  0.2920E+02  0.5543E+02
    -20.196  0.2947E+02  0.5585E+02
    -20.182  0.2975E+02  0.5627E+02
    -20.168  0.3004E+02  0.5669E+02
    -20.154  0.3033E+02  0.5712E+02
    -20.140  0.3062E+02  0.5755E+02
    -20.126  0.3091E+02  0.5798E+02
    -20.112  0.3119E+02  0.5842E+02
    -20.098  0.3146E+02  0.5887E+02
    -20.084  0.3172E+02  0.5931E+02
    -20.070  0.3196E+02  0.5976E+02
    -20.056  0.3218E+02  0.6021E+02
    -20.041  0.3238E+02  0.6067E+02
    -20.027  0.3255E+02  0.6113E+02
    -20.013  0.3270E+02  0.6159E+02
    -19.999  0.3282E+02  0.6205E+02
    -19.985  0.3292E+02  0.6251E+02
    -19.971  0.3298E+02  0.6298E+02
    -19.957  0.3302E+02  0.6344E+02
    -19.943  0.3302E+02  0.6391E+02
    -19.929  0.3300E+02  0.6437E+02
    -19.915  0.3294E+02  0.6484E+02
    -19.901  0.3285E+02  0.6530E+02
    -19.887  0.3274E+02  0.6576E+02
    -19.873  0.3259E+02  0.6622E+02
    -19.858  0.3241E+02  0.6668E+02
    -19.844  0.3221E+02  0.6713E+02
    -19.830  0.3198E+02  0.6758E+02
    -19.816  0.3174E+02  0.6803E+02
    -19.802  0.3148E+02  0.6847E+02
    -19.788  0.3120E+02  0.6891E+02
    -19.774  0.3092E+02  0.6934E+02
    -19.760  0.3064E+02  0.6978E+02
    -19.746  0.3036E+02  0.7020E+02
    -19.732  0.3008E+02  0.7063E+02
    -19.718  0.2982E+02  0.7105E+02
    -19.704  0.2958E+02  0.7146E+02
    -19.689  0.2936E+02  0.7188E+02
    -19.675  0.2917E+02  0.7229E+02
    -19.661  0.2901E+02  0.7270E+02
    -19.647  0.2888E+02  0.7310E+02
    -19.633  0.2878E+02  0.7351E+02
    -19.619  0.2872E+02  0.7391E+02
    -19.605  0.2870E+02  0.7432E+02
    -19.591  0.2871E+02  0.7472E+02
    -19.577  0.2875E+02  0.7512E+02
    -19.563  0.2881E+02  0.7553E+02
    -19.549  0.2891E+02  0.7594E+02
    -19.535  0.2902E+02  0.7635E+02
    -19.521  0.2915E+02  0.7676E+02
    -19.506  0.2929E+02  0.7717E+02
    -19.492  0.2943E+02  0.7758E+02
    -19.478  0.2957E+02  0.7800E+02
    -19.464  0.2970E+02  0.7842E+02
    -19.450  0.2982E+02  0.7884E+02
    -19.436  0.2993E+02  0.7926E+02
    -19.422  0.3001E+02  0.7968E+02
    -19.408  0.3008E+02  0.8010E+02
    -19.394  0.3011E+02  0.8053E+02
    -19.380  0.3013E+02  0.8095E+02
    -19.366  0.3012E+02  0.8138E+02
    -19.352  0.3008E+02  0.8180E+02
    -19.338  0.3003E+02  0.8222E+02
    -19.323  0.2995E+02  0.8265E+02
    -19.309  0.2986E+02  0.8307E+02
    -19.295  0.2975E+02  0.8348E+02
    -19.281  0.2964E+02  0.8390E+02
    -19.267  0.2951E+02  0.8432E+02
    -19.253  0.2939E+02  0.8473E+02
    -19.239  0.2926E+02  0.8514E+02
    -19.225  0.2914E+02  0.8555E+02
    -19.211  0.2902E+02  0.8596E+02
    -19.197  0.2892E+02  0.8637E+02
    -19.183  0.2882E+02  0.8678E+02
    -19.169  0.2874E+02  0.8718E+02
    -19.154  0.2867E+02  0.8758E+02
    -19.140  0.2862E+02  0.8799E+02
    -19.126  0.2859E+02  0.8839E+02
    -19.112  0.2857E+02  0.8879E+02
    -19.098  0.2858E+02  0.8919E+02
    -19.084  0.2861E+02  0.8960E+02
    -19.070  0.2867E+02  0.9000E+02
    -19.056  0.2875E+02  0.9040E+02
    -19.042  0.2886E+02  0.9081E+02
    -19.028  0.2900E+02  0.9122E+02
    -19.014  0.2917E+02  0.9163E+02
    -19.000  0.2936E+02  0.9204E+02
    -18.986  0.2959E+02  0.9246E+02
    -18.971  0.2984E+02  0.9288E+02
    -18.957  0.3011E+02  0.9330E+02
    -18.943  0.3040E+02  0.9373E+02
    -18.929  0.3071E+02  0.9416E+02
    -18.915  0.3103E+02  0.9460E+02
    -18.901  0.3136E+02  0.9504E+02
    -18.887  0.3169E+02  0.9549E+02
    -18.873  0.3201E+02  0.9594E+02
    -18.859  0.3233E+02  0.9640E+02
    -18.845  0.3262E+02  0.9685E+02
    -18.831  0.3289E+02  0.9732E+02
    -18.817  0.3313E+02  0.9778E+02
    -18.802  0.3334E+02  0.9825E+02
    -18.788  0.3351E+02  0.9873E+02
    -18.774  0.3364E+02  0.9920E+02
    -18.760  0.3374E+02  0.9967E+02
    -18.746  0.3379E+02  0.1001E+03
    -18.732  0.3380E+02  0.1006E+03
    -18.718  0.3378E+02  0.1011E+03
    -18.704  0.3372E+02  0.1016E+03
    -18.690  0.3363E+02  0.1020E+03
    -18.676  0.3351E+02  0.1025E+03
    -18.662  0.3336E+02  0.1030E+03
    -18.648  0.3320E+02  0.1035E+03
    -18.634  0.3303E+02  0.1039E+03
    -18.619  0.3284E+02  0.1044E+03
    -18.605  0.3265E+02  0.1048E+03
    -18.591  0.3246E+02  0.1053E+03
    -18.577  0.3227E+02  0.1058E+03
    -18.563  0.3209E+02  0.1062E+03
    -18.549  0.3192E+02  0.1067E+03
    -18.535  0.3175E+02  0.1071E+03
    -18.521  0.3159E+02  0.1076E+03
    -18.507  0.3145E+02  0.1080E+03
    -18.493  0.3131E+02  0.1084E+03
    -18.479  0.3119E+02  0.1089E+03
    -18.465  0.3108E+02  0.1093E+03
    -18.450  0.3097E+02  0.1097E+03
    -18.436  0.3088E+02  0.1102E+03
    -18.422  0.3080E+02  0.1106E+03
    -18.408  0.3073E+02  0.1110E+03
    -18.394  0.3067E+02  0.1115E+03
    -18.380  0.3062E+02  0.1119E+03
    -18.366  0.3058E+02  0.1123E+03
    -18.352  0.3056E+02  0.1128E+03
    -18.338  0.3054E+02  0.1132E+03
    -18.324  0.3053E+02  0.1136E+03
    -18.310  0.3054E+02  0.1141E+03
    -18.296  0.3056E+02  0.1145E+03
    -18.282  0.3060E+02  0.1149E+03
    -18.267  0.3065E+02  0.1154E+03
    -18.253  0.3071E+02  0.1158E+03
    -18.239  0.3078E+02  0.1162E+03
    -18.225  0.3087E+02  0.1167E+03
    -18.211  0.3098E+02  0.1171E+03
    -18.197  0.3110E+02  0.1175E+03
    -18.183  0.3123E+02  0.1180E+03
    -18.169  0.3137E+02  0.1184E+03
    -18.155  0.3152E+02  0.1189E+03
    -18.141  0.3169E+02  0.1193E+03
    -18.127  0.3186E+02  0.1197E+03
    -18.113  0.3205E+02  0.1202E+03
    -18.098  0.3224E+02  0.1207E+03
    -18.084  0.3243E+02  0.1211E+03
    -18.070  0.3264E+02  0.1216E+03
    -18.056  0.3285E+02  0.1220E+03
    -18.042  0.3306E+02  0.1225E+03
    -18.028  0.3327E+02  0.1230E+03
    -18.014  0.3348E+02  0.1234E+03
    -18.000  0.3370E+02  0.1239E+03
    -17.986  0.3391E+02  0.1244E+03
    -17.972  0.3412E+02  0.1249E+03
    -17.958  0.3432E+02  0.1254E+03
    -17.944  0.3453E+02  0.1258E+03
    -17.930  0.3472E+02  0.1263E+03
    -17.915  0.3491E+02  0.1268E+03
    -17.901  0.3509E+02  0.1273E+03
    -17.887  0.3526E+02  0.1278E+03
    -17.873  0.3542E+02  0.1283E+03
    -17.859  0.3556E+02  0.1288E+03
    -17.845  0.3569E+02  0.1293E+03
    -17.831  0.3581E+02  0.1298E+03
    -17.817  0.3591E+02  0.1303E+03
    -17.803  0.3599E+02  0.1308E+03
    -17.789  0.3606E+02  0.1313E+03
    -17.775  0.3610E+02  0.1318E+03
    -17.761  0.3612E+02  0.1324E+03
    -17.747  0.3611E+02  0.1329E+03
    -17.732  0.3608E+02  0.1334E+03
    -17.718  0.3603E+02  0.1339E+03
    -17.704  0.3595E+02  0.1344E+03
    -17.690  0.3585E+02  0.1349E+03
    -17.676  0.3572E+02  0.1354E+03
    -17.662  0.3556E+02  0.1359E+03
    -17.648  0.3538E+02  0.1364E+03
    -17.634  0.3518E+02  0.1369E+03
    -17.620  0.3496E+02  0.1374E+03
    -17.606  0.3472E+02  0.1379E+03
    -17.592  0.3447E+02  0.1384E+03
    -17.578  0.3420E+02  0.1388E+03
    -17.563  0.3392E+02  0.1393E+03
    -17.549  0.3364E+02  0.1398E+03
    -17.535  0.3335E+02  0.1403E+03
    -17.521  0.3306E+02  0.1407E+03
    -17.507  0.3277E+02  0.1412E+03
    -17.493  0.3249E+02  0.1416E+03
    -17.479  0.3222E+02  0.1421E+03
    -17.465  0.3196E+02  0.1425E+03
    -17.451  0.3172E+02  0.1430E+03
    -17.437  0.3150E+02  0.1434E+03
    -17.423  0.3130E+02  0.1439E+03
    -17.409  0.3112E+02  0.1443E+03
    -17.395  0.3097E+02  0.1447E+03
    -17.380  0.3084E+02  0.1452E+03
    -17.366  0.3073E+02  0.1456E+03
    -17.352  0.3064E+02  0.1460E+03
    -17.338  0.3058E+02  0.1465E+03
    -17.324  0.3053E+02  0.1469E+03
    -17.310  0.3050E+02  0.1473E+03
    -17.296  0.3048E+02  0.1478E+03
    -17.282  0.3047E+02  0.1482E+03
    -17.268  0.3045E+02  0.1486E+03
    -17.254  0.3044E+02  0.1491E+03
    -17.240  0.3042E+02  0.1495E+03
    -17.226  0.3039E+02  0.1499E+03
    -17.211  0.3035E+02  0.1503E+03
    -17.197  0.3029E+02  0.1508E+03
    -17.183  0.3021E+02  0.1512E+03
    -17.169  0.3012E+02  0.1516E+03
    -17.155  0.3000E+02  0.1520E+03
    -17.141  0.2986E+02  0.1525E+03
    -17.127  0.2970E+02  0.1529E+03
    -17.113  0.2953E+02  0.1533E+03
    -17.099  0.2934E+02  0.1537E+03
    -17.085  0.2914E+02  0.1541E+03
    -17.071  0.2893E+02  0.1545E+03
    -17.057  0.2872E+02  0.1549E+03
    -17.043  0.2850E+02  0.1553E+03
    -17.028  0.2828E+02  0.1557E+03
    -17.014  0.2807E+02  0.1561E+03
    -17.000  0.2787E+02  0.1565E+03
    -16.986  0.2767E+02  0.1569E+03
    -16.972  0.2749E+02  0.1573E+03
    -16.958  0.2732E+02  0.1577E+03
    -16.944  0.2716E+02  0.1581E+03
    -16.930  0.2701E+02  0.1584E+03
    -16.916  0.2688E+02  0.1588E+03
    -16.902  0.2675E+02  0.1592E+03
    -16.888  0.2664E+02  0.1596E+03
    -16.874  0.2654E+02  0.1599E+03
    -16.859  0.2645E+02  0.1603E+03
    -16.845  0.2637E+02  0.1607E+03
    -16.831  0.2630E+02  0.1611E+03
    -16.817  0.2624E+02  0.1614E+03
    -16.803  0.2619E+02  0.1618E+03
    -16.789  0.2615E+02  0.1622E+03
    -16.775  0.2613E+02  0.1625E+03
    -16.761  0.2612E+02  0.1629E+03
    -16.747  0.2613E+02  0.1633E+03
    -16.733  0.2616E+02  0.1636E+03
    -16.719  0.2621E+02  0.1640E+03
    -16.705  0.2629E+02  0.1644E+03
    -16.691  0.2640E+02  0.1647E+03
    -16.676  0.2654E+02  0.1651E+03
    -16.662  0.2672E+02  0.1655E+03
    -16.648  0.2693E+02  0.1659E+03
    -16.634  0.2717E+02  0.1663E+03
    -16.620  0.2744E+02  0.1666E+03
    -16.606  0.2773E+02  0.1670E+03
    -16.592  0.2806E+02  0.1674E+03
    -16.578  0.2839E+02  0.1678E+03
    -16.564  0.2875E+02  0.1682E+03
    -16.550  0.2910E+02  0.1686E+03
    -16.536  0.2945E+02  0.1691E+03
    -16.522  0.2979E+02  0.1695E+03
    -16.507  0.3011E+02  0.1699E+03
    -16.493  0.3040E+02  0.1703E+03
    -16.479  0.3065E+02  0.1708E+03
    -16.465  0.3086E+02  0.1712E+03
    -16.451  0.3102E+02  0.1716E+03
    -16.437  0.3113E+02  0.1721E+03
    -16.423  0.3119E+02  0.1725E+03
    -16.409  0.3119E+02  0.1729E+03
    -16.395  0.3114E+02  0.1734E+03
    -16.381  0.3103E+02  0.1738E+03
    -16.367  0.3088E+02  0.1743E+03
    -16.353  0.3069E+02  0.1747E+03
    -16.339  0.3046E+02  0.1751E+03
    -16.324  0.3021E+02  0.1755E+03
    -16.310  0.2993E+02  0.1760E+03
    -16.296  0.2965E+02  0.1764E+03
    -16.282  0.2935E+02  0.1768E+03
    -16.268  0.2906E+02  0.1772E+03
    -16.254  0.2878E+02  0.1776E+03
    -16.240  0.2852E+02  0.1780E+03
    -16.226  0.2827E+02  0.1784E+03
    -16.212  0.2805E+02  0.1788E+03
    -16.198  0.2785E+02  0.1792E+03
    -16.184  0.2768E+02  0.1796E+03
    -16.170  0.2755E+02  0.1800E+03
    -16.155  0.2743E+02  0.1804E+03
    -16.141  0.2735E+02  0.1807E+03
    -16.127  0.2729E+02  0.1811E+03
    -16.113  0.2726E+02  0.1815E+03
    -16.099  0.2724E+02  0.1819E+03
    -16.085  0.2724E+02  0.1823E+03
    -16.071  0.2726E+02  0.1827E+03
    -16.057  0.2728E+02  0.1830E+03
    -16.043  0.2731E+02  0.1834E+03
    -16.029  0.2735E+02  0.1838E+03
    -16.015  0.2740E+02  0.1842E+03
    -16.001  0.2745E+02  0.1846E+03
    -15.987  0.2751E+02  0.1850E+03
    -15.972  0.2757E+02  0.1854E+03
    -15.958  0.2763E+02  0.1858E+03
    -15.944  0.2771E+02  0.1861E+03
    -15.930  0.2780E+02  0.1865E+03
    -15.916  0.2790E+02  0.1869E+03
    -15.902  0.2801E+02  0.1873E+03
    -15.888  0.2814E+02  0.1877E+03
    -15.874  0.2828E+02  0.1881E+03
    -15.860  0.2844E+02  0.1885E+03
    -15.846  0.2861E+02  0.1889E+03
    -15.832  0.2879E+02  0.1893E+03
    -15.818  0.2898E+02  0.1897E+03
    -15.804  0.2918E+02  0.1901E+03
    -15.789  0.2938E+02  0.1906E+03
    -15.775  0.2957E+02  0.1910E+03
    -15.761  0.2976E+02  0.1914E+03
    -15.747  0.2993E+02  0.1918E+03
    -15.733  0.3009E+02  0.1922E+03
    -15.719  0.3022E+02  0.1927E+03
    -15.705  0.3034E+02  0.1931E+03
    -15.691  0.3042E+02  0.1935E+03
    -15.677  0.3048E+02  0.1939E+03
    -15.663  0.3052E+02  0.1944E+03
    -15.649  0.3053E+02  0.1948E+03
    -15.635  0.3052E+02  0.1952E+03
    -15.620  0.3050E+02  0.1957E+03
    -15.606  0.3046E+02  0.1961E+03
    -15.592  0.3042E+02  0.1965E+03
    -15.578  0.3037E+02  0.1969E+03
    -15.564  0.3033E+02  0.1974E+03
    -15.550  0.3029E+02  0.1978E+03
    -15.536  0.3027E+02  0.1982E+03
    -15.522  0.3027E+02  0.1987E+03
    -15.508  0.3029E+02  0.1991E+03
    -15.494  0.3033E+02  0.1995E+03
    -15.480  0.3040E+02  0.1999E+03
    -15.466  0.3049E+02  0.2004E+03
    -15.452  0.3060E+02  0.2008E+03
    -15.437  0.3073E+02  0.2012E+03
    -15.423  0.3088E+02  0.2017E+03
    -15.409  0.3104E+02  0.2021E+03
    -15.395  0.3121E+02  0.2025E+03
    -15.381  0.3138E+02  0.2030E+03
    -15.367  0.3156E+02  0.2034E+03
    -15.353  0.3172E+02  0.2039E+03
    -15.339  0.3188E+02  0.2043E+03
    -15.325  0.3203E+02  0.2048E+03
    -15.311  0.3215E+02  0.2052E+03
    -15.297  0.3226E+02  0.2057E+03
    -15.283  0.3235E+02  0.2061E+03
    -15.268  0.3241E+02  0.2066E+03
    -15.254  0.3246E+02  0.2070E+03
    -15.240  0.3248E+02  0.2075E+03
    -15.226  0.3248E+02  0.2080E+03
    -15.212  0.3246E+02  0.2084E+03
    -15.198  0.3243E+02  0.2089E+03
    -15.184  0.3239E+02  0.2093E+03
    -15.170  0.3234E+02  0.2098E+03
    -15.156  0.3229E+02  0.2102E+03
    -15.142  0.3224E+02  0.2107E+03
    -15.128  0.3220E+02  0.2112E+03
    -15.114  0.3217E+02  0.2116E+03
    -15.100  0.3216E+02  0.2121E+03
    -15.085  0.3217E+02  0.2125E+03
    -15.071  0.3219E+02  0.2130E+03
    -15.057  0.3225E+02  0.2134E+03
    -15.043  0.3233E+02  0.2139E+03
    -15.029  0.3243E+02  0.2143E+03
    -15.015  0.3256E+02  0.2148E+03
    -15.001  0.3271E+02  0.2152E+03
    -14.987  0.3288E+02  0.2157E+03
    -14.973  0.3307E+02  0.2162E+03
    -14.959  0.3326E+02  0.2166E+03
    -14.945  0.3346E+02  0.2171E+03
    -14.931  0.3366E+02  0.2176E+03
    -14.916  0.3385E+02  0.2181E+03
    -14.902  0.3403E+02  0.2185E+03
    -14.888  0.3418E+02  0.2190E+03
    -14.874  0.3431E+02  0.2195E+03
    -14.860  0.3442E+02  0.2200E+03
    -14.846  0.3449E+02  0.2205E+03
    -14.832  0.3452E+02  0.2210E+03
    -14.818  0.3453E+02  0.2215E+03
    -14.804  0.3450E+02  0.2219E+03
    -14.790  0.3444E+02  0.2224E+03
    -14.776  0.3435E+02  0.2229E+03
    -14.762  0.3424E+02  0.2234E+03
    -14.748  0.3412E+02  0.2239E+03
    -14.733  0.3399E+02  0.2243E+03
    -14.719  0.3385E+02  0.2248E+03
    -14.705  0.3372E+02  0.2253E+03
    -14.691  0.3359E+02  0.2258E+03
    -14.677  0.3348E+02  0.2262E+03
    -14.663  0.3340E+02  0.2267E+03
    -14.649  0.3334E+02  0.2272E+03
    -14.635  0.3331E+02  0.2277E+03
    -14.621  0.3331E+02  0.2281E+03
    -14.607  0.3335E+02  0.2286E+03
    -14.593  0.3342E+02  0.2291E+03
    -14.579  0.3353E+02  0.2295E+03
    -14.564  0.3366E+02  0.2300E+03
    -14.550  0.3382E+02  0.2305E+03
    -14.536  0.3400E+02  0.2310E+03
    -14.522  0.3419E+02  0.2314E+03
    -14.508  0.3440E+02  0.2319E+03
    -14.494  0.3461E+02  0.2324E+03
    -14.480  0.3481E+02  0.2329E+03
    -14.466  0.3500E+02  0.2334E+03
    -14.452  0.3517E+02  0.2339E+03
    -14.438  0.3531E+02  0.2344E+03
    -14.424  0.3542E+02  0.2349E+03
    -14.410  0.3550E+02  0.2354E+03
    -14.396  0.3553E+02  0.2359E+03
    -14.381  0.3552E+02  0.2364E+03
    -14.367  0.3546E+02  0.2369E+03
    -14.353  0.3535E+02  0.2374E+03
    -14.339  0.3519E+02  0.2379E+03
    -14.325  0.3499E+02  0.2384E+03
    -14.311  0.3475E+02  0.2389E+03
    -14.297  0.3447E+02  0.2393E+03
    -14.283  0.3416E+02  0.2398E+03
    -14.269  0.3383E+02  0.2403E+03
    -14.255  0.3347E+02  0.2408E+03
    -14.241  0.3311E+02  0.2412E+03
    -14.227  0.3274E+02  0.2417E+03
    -14.213  0.3238E+02  0.2422E+03
    -14.198  0.3202E+02  0.2426E+03
    -14.184  0.3169E+02  0.2431E+03
    -14.170  0.3138E+02  0.2435E+03
    -14.156  0.3110E+02  0.2439E+03
    -14.142  0.3086E+02  0.2444E+03
    -14.128  0.3065E+02  0.2448E+03
    -14.114  0.3048E+02  0.2452E+03
    -14.100  0.3036E+02  0.2457E+03
    -14.086  0.3027E+02  0.2461E+03
    -14.072  0.3022E+02  0.2465E+03
    -14.058  0.3022E+02  0.2469E+03
    -14.044  0.3024E+02  0.2474E+03
    -14.029  0.3031E+02  0.2478E+03
    -14.015  0.3040E+02  0.2482E+03
    -14.001  0.3052E+02  0.2486E+03
    -13.987  0.3066E+02  0.2491E+03
    -13.973  0.3082E+02  0.2495E+03
    -13.959  0.3099E+02  0.2499E+03
    -13.945  0.3118E+02  0.2504E+03
    -13.931  0.3137E+02  0.2508E+03
    -13.917  0.3157E+02  0.2513E+03
    -13.903  0.3177E+02  0.2517E+03
    -13.889  0.3196E+02  0.2522E+03
    -13.875  0.3215E+02  0.2526E+03
    -13.861  0.3232E+02  0.2531E+03
    -13.846  0.3249E+02  0.2535E+03
    -13.832  0.3263E+02  0.2540E+03
    -13.818  0.3276E+02  0.2545E+03
    -13.804  0.3287E+02  0.2549E+03
    -13.790  0.3295E+02  0.2554E+03
    -13.776  0.3300E+02  0.2558E+03
    -13.762  0.3302E+02  0.2563E+03
    -13.748  0.3301E+02  0.2568E+03
    -13.734  0.3297E+02  0.2572E+03
    -13.720  0.3290E+02  0.2577E+03
    -13.706  0.3279E+02  0.2582E+03
    -13.692  0.3265E+02  0.2586E+03
    -13.677  0.3248E+02  0.2591E+03
    -13.663  0.3228E+02  0.2595E+03
    -13.649  0.3206E+02  0.2600E+03
    -13.635  0.3183E+02  0.2604E+03
    -13.621  0.3157E+02  0.2609E+03
    -13.607  0.3132E+02  0.2613E+03
    -13.593  0.3106E+02  0.2618E+03
    -13.579  0.3080E+02  0.2622E+03
    -13.565  0.3057E+02  0.2626E+03
    -13.551  0.3034E+02  0.2631E+03
    -13.537  0.3015E+02  0.2635E+03
    -13.523  0.2999E+02  0.2639E+03
    -13.509  0.2986E+02  0.2643E+03
    -13.494  0.2977E+02  0.2647E+03
    -13.480  0.2973E+02  0.2652E+03
    -13.466  0.2972E+02  0.2656E+03
    -13.452  0.2976E+02  0.2660E+03
    -13.438  0.2985E+02  0.2664E+03
    -13.424  0.2997E+02  0.2668E+03
    -13.410  0.3013E+02  0.2673E+03
    -13.396  0.3032E+02  0.2677E+03
    -13.382  0.3053E+02  0.2681E+03
    -13.368  0.3077E+02  0.2686E+03
    -13.354  0.3102E+02  0.2690E+03
    -13.340  0.3129E+02  0.2694E+03
    -13.325  0.3155E+02  0.2699E+03
    -13.311  0.3181E+02  0.2703E+03
    -13.297  0.3206E+02  0.2708E+03
    -13.283  0.3230E+02  0.2712E+03
    -13.269  0.3251E+02  0.2717E+03
    -13.255  0.3271E+02  0.2721E+03
    -13.241  0.3287E+02  0.2726E+03
    -13.227  0.3301E+02  0.2731E+03
    -13.213  0.3311E+02  0.2735E+03
    -13.199  0.3318E+02  0.2740E+03
    -13.185  0.3322E+02  0.2745E+03
    -13.171  0.3323E+02  0.2749E+03
    -13.157  0.3322E+02  0.2754E+03
    -13.142  0.3317E+02  0.2759E+03
    -13.128  0.3311E+02  0.2763E+03
    -13.114  0.3303E+02  0.2768E+03
    -13.100  0.3293E+02  0.2773E+03
    -13.086  0.3283E+02  0.2777E+03
    -13.072  0.3273E+02  0.2782E+03
    -13.058  0.3262E+02  0.2787E+03
    -13.044  0.3252E+02  0.2791E+03
    -13.030  0.3244E+02  0.2796E+03
    -13.016  0.3236E+02  0.2800E+03
    -13.002  0.3230E+02  0.2805E+03
    -12.988  0.3225E+02  0.2809E+03
    -12.973  0.3222E+02  0.2814E+03
    -12.959  0.3221E+02  0.2818E+03
    -12.945  0.3221E+02  0.2823E+03
    -12.931  0.3222E+02  0.2827E+03
    -12.917  0.3224E+02  0.2832E+03
    -12.903  0.3227E+02  0.2837E+03
    -12.889  0.3230E+02  0.2841E+03
    -12.875  0.3233E+02  0.2846E+03
    -12.861  0.3236E+02  0.2850E+03
    -12.847  0.3238E+02  0.2855E+03
    -12.833  0.3240E+02  0.2859E+03
    -12.819  0.3241E+02  0.2864E+03