 134 134   0   0
  0.2736666E+02  0.2130000E-08  0.1721659E-08  0.1000000E-08  0.5000000E-15
  1.000000000000000E-004
  CAR 
 unknown system                          
      5.41412855    -24.35441579 2000     -1.54389297      1.00000000
    -24.354  0.0000E+00  0.0000E+00
    -24.340  0.0000E+00  0.0000E+00
    -24.325  0.0000E+00  0.0000E+00
    -24.310  0.0000E+00  0.0000E+00
    -24.295  0.0000E+00  0.0000E+00
    -24.280  0.0000E+00  0.0000E+00
    -24.265  0.0000E+00  0.0000E+00
    -24.250  0.0000E+00  0.0000E+00
    -24.235  0.0000E+00  0.0000E+00
    -24.220  0.0000E+00  0.0000E+00
    -24.205  0.0000E+00  0.0000E+00
    -24.191  0.0000E+00  0.0000E+00
    -24.176  0.0000E+00  0.0000E+00
    -24.161  0.0000E+00  0.0000E+00
    -24.146  0.0000E+00  0.0000E+00
    -24.131  0.0000E+00  0.0000E+00
    -24.116  0.0000E+00  0.0000E+00
    -24.101  0.0000E+00  0.0000E+00
    -24.086  0.0000E+00  0.0000E+00
    -24.071  0.0000E+00  0.0000E+00
    -24.057  0.0000E+00  0.0000E+00
    -24.042  0.0000E+00  0.0000E+00
    -24.027  0.0000E+00  0.0000E+00
    -24.012  0.0000E+00  0.0000E+00
    -23.997  0.0000E+00  0.0000E+00
    -23.982  0.0000E+00  0.0000E+00
    -23.967  0.0000E+00  0.0000E+00
    -23.952  0.0000E+00  0.0000E+00
    -23.937  0.0000E+00  0.0000E+00
    -23.923  0.0000E+00  0.0000E+00
    -23.908  0.0000E+00  0.0000E+00
    -23.893  0.0000E+00  0.0000E+00
    -23.878  0.0000E+00  0.0000E+00
    -23.863  0.0000E+00  0.0000E+00
    -23.848  0.0000E+00  0.0000E+00
    -23.833  0.0000E+00  0.0000E+00
    -23.818  0.0000E+00  0.0000E+00
    -23.803  0.0000E+00  0.0000E+00
    -23.789  0.0000E+00  0.0000E+00
    -23.774  0.0000E+00  0.0000E+00
    -23.759  0.0000E+00  0.0000E+00
    -23.744  0.0000E+00  0.0000E+00
    -23.729  0.0000E+00  0.0000E+00
    -23.714  0.0000E+00  0.0000E+00
    -23.699  0.0000E+00  0.0000E+00
    -23.684  0.0000E+00  0.0000E+00
    -23.669  0.0000E+00  0.0000E+00
    -23.655  0.0000E+00  0.0000E+00
    -23.640  0.0000E+00  0.0000E+00
    -23.625  0.0000E+00  0.0000E+00
    -23.610  0.0000E+00  0.0000E+00
    -23.595  0.0000E+00  0.0000E+00
    -23.580  0.0000E+00  0.0000E+00
    -23.565  0.0000E+00  0.0000E+00
    -23.550  0.0000E+00  0.0000E+00
    -23.535  0.7455E-14  0.1110E-15
    -23.520  0.0000E+00  0.1110E-15
    -23.506  0.1740E-13  0.3701E-15
    -23.491  0.3479E-13  0.8882E-15
    -23.476  0.8449E-13  0.2146E-14
    -23.461  0.1889E-12  0.4959E-14
    -23.446  0.4374E-12  0.1147E-13
    -23.431  0.9742E-12  0.2598E-13
    -23.416  0.2177E-11  0.5840E-13
    -23.401  0.4798E-11  0.1298E-12
    -23.386  0.1045E-10  0.2855E-12
    -23.372  0.2254E-10  0.6212E-12
    -23.357  0.4805E-10  0.1337E-11
    -23.342  0.1013E-09  0.2845E-11
    -23.327  0.2113E-09  0.5991E-11
    -23.312  0.4357E-09  0.1248E-10
    -23.297  0.8885E-09  0.2571E-10
    -23.282  0.1792E-08  0.5240E-10
    -23.267  0.3575E-08  0.1056E-09
    -23.252  0.7053E-08  0.2107E-09
    -23.238  0.1376E-07  0.4156E-09
    -23.223  0.2655E-07  0.8110E-09
    -23.208  0.5067E-07  0.1566E-08
    -23.193  0.9564E-07  0.2990E-08
    -23.178  0.1785E-06  0.5648E-08
    -23.163  0.3295E-06  0.1056E-07
    -23.148  0.6016E-06  0.1951E-07
    -23.133  0.1086E-05  0.3569E-07
    -23.118  0.1940E-05  0.6457E-07
    -23.104  0.3425E-05  0.1156E-06
    -23.089  0.5982E-05  0.2047E-06
    -23.074  0.1033E-04  0.3585E-06
    -23.059  0.1765E-04  0.6214E-06
    -23.044  0.2982E-04  0.1065E-05
    -23.029  0.4982E-04  0.1807E-05
    -23.014  0.8232E-04  0.3033E-05
    -22.999  0.1345E-03  0.5037E-05
    -22.984  0.2174E-03  0.8275E-05
    -22.969  0.3475E-03  0.1345E-04
    -22.955  0.5494E-03  0.2163E-04
    -22.940  0.8589E-03  0.3442E-04
    -22.925  0.1328E-02  0.5420E-04
    -22.910  0.2031E-02  0.8443E-04
    -22.895  0.3071E-02  0.1302E-03
    -22.880  0.4593E-02  0.1986E-03
    -22.865  0.6793E-02  0.2997E-03
    -22.850  0.9937E-02  0.4477E-03
    -22.835  0.1438E-01  0.6618E-03
    -22.821  0.2057E-01  0.9681E-03
    -22.806  0.2910E-01  0.1401E-02
    -22.791  0.4073E-01  0.2008E-02
    -22.776  0.5637E-01  0.2847E-02
    -22.761  0.7715E-01  0.3996E-02
    -22.746  0.1044E+00  0.5552E-02
    -22.731  0.1398E+00  0.7634E-02
    -22.716  0.1851E+00  0.1039E-01
    -22.701  0.2424E+00  0.1400E-01
    -22.687  0.3139E+00  0.1868E-01
    -22.672  0.4021E+00  0.2466E-01
    -22.657  0.5093E+00  0.3225E-01
    -22.642  0.6379E+00  0.4175E-01
    -22.627  0.7903E+00  0.5352E-01
    -22.612  0.9684E+00  0.6794E-01
    -22.597  0.1173E+01  0.8541E-01
    -22.582  0.1406E+01  0.1064E+00
    -22.567  0.1667E+01  0.1312E+00
    -22.553  0.1954E+01  0.1603E+00
    -22.538  0.2265E+01  0.1940E+00
    -22.523  0.2597E+01  0.2327E+00
    -22.508  0.2945E+01  0.2765E+00
    -22.493  0.3304E+01  0.3257E+00
    -22.478  0.3665E+01  0.3803E+00
    -22.463  0.4021E+01  0.4402E+00
    -22.448  0.4365E+01  0.5052E+00
    -22.433  0.4686E+01  0.5750E+00
    -22.418  0.4978E+01  0.6491E+00
    -22.404  0.5231E+01  0.7270E+00
    -22.389  0.5440E+01  0.8080E+00
    -22.374  0.5599E+01  0.8914E+00
    -22.359  0.5705E+01  0.9764E+00
    -22.344  0.5756E+01  0.1062E+01
    -22.329  0.5754E+01  0.1148E+01
    -22.314  0.5701E+01  0.1233E+01
    -22.299  0.5604E+01  0.1316E+01
    -22.284  0.5470E+01  0.1398E+01
    -22.270  0.5308E+01  0.1477E+01
    -22.255  0.5127E+01  0.1553E+01
    -22.240  0.4940E+01  0.1627E+01
    -22.225  0.4757E+01  0.1697E+01
    -22.210  0.4589E+01  0.1766E+01
    -22.195  0.4446E+01  0.1832E+01
    -22.180  0.4335E+01  0.1896E+01
    -22.165  0.4264E+01  0.1960E+01
    -22.150  0.4236E+01  0.2023E+01
    -22.136  0.4253E+01  0.2086E+01
    -22.121  0.4314E+01  0.2151E+01
    -22.106  0.4417E+01  0.2216E+01
    -22.091  0.4555E+01  0.2284E+01
    -22.076  0.4720E+01  0.2355E+01
    -22.061  0.4905E+01  0.2428E+01
    -22.046  0.5100E+01  0.2504E+01
    -22.031  0.5293E+01  0.2582E+01
    -22.016  0.5474E+01  0.2664E+01
    -22.002  0.5635E+01  0.2748E+01
    -21.987  0.5766E+01  0.2834E+01
    -21.972  0.5862E+01  0.2921E+01
    -21.957  0.5917E+01  0.3009E+01
    -21.942  0.5931E+01  0.3097E+01
    -21.927  0.5903E+01  0.3185E+01
    -21.912  0.5836E+01  0.3272E+01
    -21.897  0.5737E+01  0.3358E+01
    -21.882  0.5611E+01  0.3441E+01
    -21.867  0.5469E+01  0.3523E+01
    -21.853  0.5319E+01  0.3602E+01
    -21.838  0.5171E+01  0.3679E+01
    -21.823  0.5037E+01  0.3754E+01
    -21.808  0.4924E+01  0.3827E+01
    -21.793  0.4842E+01  0.3899E+01
    -21.778  0.4795E+01  0.3971E+01
    -21.763  0.4790E+01  0.4042E+01
    -21.748  0.4827E+01  0.4114E+01
    -21.733  0.4906E+01  0.4187E+01
    -21.719  0.5026E+01  0.4262E+01
    -21.704  0.5181E+01  0.4339E+01
    -21.689  0.5367E+01  0.4419E+01
    -21.674  0.5576E+01  0.4502E+01
    -21.659  0.5800E+01  0.4588E+01
    -21.644  0.6033E+01  0.4678E+01
    -21.629  0.6268E+01  0.4771E+01
    -21.614  0.6500E+01  0.4868E+01
    -21.599  0.6723E+01  0.4968E+01
    -21.585  0.6936E+01  0.5072E+01
    -21.570  0.7137E+01  0.5178E+01
    -21.555  0.7328E+01  0.5287E+01
    -21.540  0.7512E+01  0.5399E+01
    -21.525  0.7693E+01  0.5514E+01
    -21.510  0.7875E+01  0.5631E+01
    -21.495  0.8065E+01  0.5751E+01
    -21.480  0.8266E+01  0.5874E+01
    -21.465  0.8484E+01  0.6000E+01
    -21.451  0.8721E+01  0.6130E+01
    -21.436  0.8980E+01  0.6264E+01
    -21.421  0.9260E+01  0.6402E+01
    -21.406  0.9560E+01  0.6544E+01
    -21.391  0.9874E+01  0.6691E+01
    -21.376  0.1020E+02  0.6843E+01
    -21.361  0.1052E+02  0.7000E+01
    -21.346  0.1085E+02  0.7161E+01
    -21.331  0.1115E+02  0.7327E+01
    -21.317  0.1144E+02  0.7498E+01
    -21.302  0.1170E+02  0.7672E+01
    -21.287  0.1192E+02  0.7850E+01
    -21.272  0.1210E+02  0.8030E+01
    -21.257  0.1225E+02  0.8212E+01
    -21.242  0.1235E+02  0.8396E+01
    -21.227  0.1241E+02  0.8581E+01
    -21.212  0.1244E+02  0.8766E+01
    -21.197  0.1243E+02  0.8951E+01
    -21.182  0.1241E+02  0.9136E+01
    -21.168  0.1237E+02  0.9320E+01
    -21.153  0.1232E+02  0.9504E+01
    -21.138  0.1227E+02  0.9686E+01
    -21.123  0.1224E+02  0.9869E+01
    -21.108  0.1222E+02  0.1005E+02
    -21.093  0.1223E+02  0.1023E+02
    -21.078  0.1228E+02  0.1042E+02
    -21.063  0.1236E+02  0.1060E+02
    -21.048  0.1248E+02  0.1079E+02
    -21.034  0.1264E+02  0.1097E+02
    -21.019  0.1284E+02  0.1116E+02
    -21.004  0.1309E+02  0.1136E+02
    -20.989  0.1338E+02  0.1156E+02
    -20.974  0.1372E+02  0.1176E+02
    -20.959  0.1409E+02  0.1197E+02
    -20.944  0.1451E+02  0.1219E+02
    -20.929  0.1496E+02  0.1241E+02
    -20.914  0.1544E+02  0.1264E+02
    -20.900  0.1594E+02  0.1288E+02
    -20.885  0.1647E+02  0.1312E+02
    -20.870  0.1701E+02  0.1338E+02
    -20.855  0.1756E+02  0.1364E+02
    -20.840  0.1811E+02  0.1391E+02
    -20.825  0.1866E+02  0.1419E+02
    -20.810  0.1918E+02  0.1447E+02
    -20.795  0.1968E+02  0.1477E+02
    -20.780  0.2015E+02  0.1507E+02
    -20.766  0.2057E+02  0.1537E+02
    -20.751  0.2093E+02  0.1568E+02
    -20.736  0.2124E+02  0.1600E+02
    -20.721  0.2148E+02  0.1632E+02
    -20.706  0.2164E+02  0.1664E+02
    -20.691  0.2174E+02  0.1697E+02
    -20.676  0.2175E+02  0.1729E+02
    -20.661  0.2169E+02  0.1761E+02
    -20.646  0.2155E+02  0.1793E+02
    -20.631  0.2134E+02  0.1825E+02
    -20.617  0.2107E+02  0.1857E+02
    -20.602  0.2074E+02  0.1887E+02
    -20.587  0.2036E+02  0.1918E+02
    -20.572  0.1995E+02  0.1947E+02
    -20.557  0.1951E+02  0.1976E+02
    -20.542  0.1905E+02  0.2005E+02
    -20.527  0.1858E+02  0.2033E+02
    -20.512  0.1812E+02  0.2059E+02
    -20.497  0.1767E+02  0.2086E+02
    -20.483  0.1724E+02  0.2111E+02
    -20.468  0.1684E+02  0.2137E+02
    -20.453  0.1647E+02  0.2161E+02
    -20.438  0.1614E+02  0.2185E+02
    -20.423  0.1585E+02  0.2209E+02
    -20.408  0.1560E+02  0.2232E+02
    -20.393  0.1540E+02  0.2255E+02
    -20.378  0.1524E+02  0.2278E+02
    -20.363  0.1513E+02  0.2300E+02
    -20.349  0.1506E+02  0.2322E+02
    -20.334  0.1502E+02  0.2345E+02
    -20.319  0.1503E+02  0.2367E+02
    -20.304  0.1508E+02  0.2390E+02
    -20.289  0.1515E+02  0.2412E+02
    -20.274  0.1526E+02  0.2435E+02
    -20.259  0.1539E+02  0.2458E+02
    -20.244  0.1554E+02  0.2481E+02
    -20.229  0.1571E+02  0.2504E+02
    -20.215  0.1589E+02  0.2528E+02
    -20.200  0.1609E+02  0.2552E+02
    -20.185  0.1629E+02  0.2576E+02
    -20.170  0.1650E+02  0.2601E+02
    -20.155  0.1672E+02  0.2626E+02
    -20.140  0.1694E+02  0.2651E+02
    -20.125  0.1715E+02  0.2677E+02
    -20.110  0.1737E+02  0.2702E+02
    -20.095  0.1759E+02  0.2729E+02
    -20.080  0.1781E+02  0.2755E+02
    -20.066  0.1803E+02  0.2782E+02
    -20.051  0.1826E+02  0.2809E+02
    -20.036  0.1849E+02  0.2837E+02
    -20.021  0.1872E+02  0.2865E+02
    -20.006  0.1895E+02  0.2893E+02
    -19.991  0.1919E+02  0.2921E+02
    -19.976  0.1944E+02  0.2950E+02
    -19.961  0.1968E+02  0.2980E+02
    -19.946  0.1992E+02  0.3009E+02
    -19.932  0.2017E+02  0.3039E+02
    -19.917  0.2040E+02  0.3070E+02
    -19.902  0.2062E+02  0.3100E+02
    -19.887  0.2083E+02  0.3131E+02
    -19.872  0.2101E+02  0.3163E+02
    -19.857  0.2118E+02  0.3194E+02
    -19.842  0.2131E+02  0.3226E+02
    -19.827  0.2141E+02  0.3258E+02
    -19.812  0.2147E+02  0.3290E+02
    -19.798  0.2150E+02  0.3322E+02
    -19.783  0.2150E+02  0.3354E+02
    -19.768  0.2146E+02  0.3386E+02
    -19.753  0.2138E+02  0.3418E+02
    -19.738  0.2128E+02  0.3449E+02
    -19.723  0.2115E+02  0.3481E+02
    -19.708  0.2100E+02  0.3512E+02
    -19.693  0.2085E+02  0.3543E+02
    -19.678  0.2068E+02  0.3574E+02
    -19.664  0.2052E+02  0.3605E+02
    -19.649  0.2037E+02  0.3635E+02
    -19.634  0.2023E+02  0.3665E+02
    -19.619  0.2012E+02  0.3695E+02
    -19.604  0.2003E+02  0.3725E+02
    -19.589  0.1997E+02  0.3755E+02
    -19.574  0.1995E+02  0.3784E+02
    -19.559  0.1995E+02  0.3814E+02
    -19.544  0.1999E+02  0.3844E+02
    -19.529  0.2005E+02  0.3874E+02
    -19.515  0.2013E+02  0.3904E+02
    -19.500  0.2023E+02  0.3934E+02
    -19.485  0.2035E+02  0.3964E+02
    -19.470  0.2046E+02  0.3994E+02
    -19.455  0.2057E+02  0.4025E+02
    -19.440  0.2067E+02  0.4056E+02
    -19.425  0.2075E+02  0.4087E+02
    -19.410  0.2081E+02  0.4118E+02
    -19.395  0.2084E+02  0.4149E+02
    -19.381  0.2085E+02  0.4180E+02
    -19.366  0.2083E+02  0.4211E+02
    -19.351  0.2078E+02  0.4242E+02
    -19.336  0.2070E+02  0.4273E+02
    -19.321  0.2061E+02  0.4303E+02
    -19.306  0.2050E+02  0.4334E+02
    -19.291  0.2039E+02  0.4364E+02
    -19.276  0.2028E+02  0.4394E+02
    -19.261  0.2017E+02  0.4424E+02
    -19.247  0.2008E+02  0.4454E+02
    -19.232  0.2002E+02  0.4484E+02
    -19.217  0.1997E+02  0.4514E+02
    -19.202  0.1996E+02  0.4544E+02
    -19.187  0.1998E+02  0.4573E+02
    -19.172  0.2004E+02  0.4603E+02
    -19.157  0.2012E+02  0.4633E+02
    -19.142  0.2023E+02  0.4663E+02
    -19.127  0.2037E+02  0.4694E+02
    -19.113  0.2052E+02  0.4724E+02
    -19.098  0.2068E+02  0.4755E+02
    -19.083  0.2084E+02  0.4786E+02
    -19.068  0.2099E+02  0.4817E+02
    -19.053  0.2112E+02  0.4849E+02
    -19.038  0.2123E+02  0.4880E+02
    -19.023  0.2131E+02  0.4912E+02
    -19.008  0.2135E+02  0.4944E+02
    -18.993  0.2136E+02  0.4976E+02
    -18.979  0.2132E+02  0.5007E+02
    -18.964  0.2125E+02  0.5039E+02
    -18.949  0.2114E+02  0.5071E+02
    -18.934  0.2100E+02  0.5102E+02
    -18.919  0.2083E+02  0.5133E+02
    -18.904  0.2065E+02  0.5164E+02
    -18.889  0.2046E+02  0.5194E+02
    -18.874  0.2027E+02  0.5224E+02
    -18.859  0.2009E+02  0.5254E+02
    -18.844  0.1992E+02  0.5284E+02
    -18.830  0.1978E+02  0.5313E+02
    -18.815  0.1966E+02  0.5343E+02
    -18.800  0.1957E+02  0.5372E+02
    -18.785  0.1951E+02  0.5401E+02
    -18.770  0.1949E+02  0.5430E+02
    -18.755  0.1948E+02  0.5459E+02
    -18.740  0.1950E+02  0.5488E+02
    -18.725  0.1954E+02  0.5517E+02
    -18.710  0.1959E+02  0.5546E+02
    -18.696  0.1964E+02  0.5575E+02
    -18.681  0.1969E+02  0.5605E+02
    -18.666  0.1973E+02  0.5634E+02
    -18.651  0.1975E+02  0.5664E+02
    -18.636  0.1975E+02  0.5693E+02
    -18.621  0.1972E+02  0.5722E+02
    -18.606  0.1967E+02  0.5752E+02
    -18.591  0.1958E+02  0.5781E+02
    -18.576  0.1948E+02  0.5810E+02
    -18.562  0.1934E+02  0.5839E+02
    -18.547  0.1918E+02  0.5867E+02
    -18.532  0.1901E+02  0.5895E+02
    -18.517  0.1883E+02  0.5923E+02
    -18.502  0.1865E+02  0.5951E+02
    -18.487  0.1847E+02  0.5979E+02
    -18.472  0.1830E+02  0.6006E+02
    -18.457  0.1815E+02  0.6033E+02
    -18.442  0.1802E+02  0.6060E+02
    -18.428  0.1793E+02  0.6087E+02
    -18.413  0.1787E+02  0.6113E+02
    -18.398  0.1785E+02  0.6140E+02
    -18.383  0.1788E+02  0.6166E+02
    -18.368  0.1795E+02  0.6193E+02
    -18.353  0.1807E+02  0.6220E+02
    -18.338  0.1823E+02  0.6247E+02
    -18.323  0.1844E+02  0.6275E+02
    -18.308  0.1869E+02  0.6302E+02
    -18.293  0.1897E+02  0.6331E+02
    -18.279  0.1929E+02  0.6359E+02
    -18.264  0.1962E+02  0.6389E+02
    -18.249  0.1998E+02  0.6418E+02
    -18.234  0.2034E+02  0.6449E+02
    -18.219  0.2070E+02  0.6480E+02
    -18.204  0.2105E+02  0.6511E+02
    -18.189  0.2139E+02  0.6543E+02
    -18.174  0.2170E+02  0.6575E+02
    -18.159  0.2199E+02  0.6608E+02
    -18.145  0.2223E+02  0.6641E+02
    -18.130  0.2244E+02  0.6674E+02
    -18.115  0.2261E+02  0.6708E+02
    -18.100  0.2274E+02  0.6742E+02
    -18.085  0.2283E+02  0.6776E+02
    -18.070  0.2288E+02  0.6810E+02
    -18.055  0.2290E+02  0.6844E+02
    -18.040  0.2289E+02  0.6878E+02
    -18.025  0.2285E+02  0.6912E+02
    -18.011  0.2280E+02  0.6946E+02
    -17.996  0.2274E+02  0.6980E+02
    -17.981  0.2267E+02  0.7014E+02
    -17.966  0.2260E+02  0.7047E+02
    -17.951  0.2254E+02  0.7081E+02
    -17.936  0.2248E+02  0.7114E+02
    -17.921  0.2243E+02  0.7148E+02
    -17.906  0.2239E+02  0.7181E+02
    -17.891  0.2236E+02  0.7214E+02
    -17.877  0.2233E+02  0.7248E+02
    -17.862  0.2231E+02  0.7281E+02
    -17.847  0.2230E+02  0.7314E+02
    -17.832  0.2228E+02  0.7347E+02
    -17.817  0.2227E+02  0.7380E+02
    -17.802  0.2225E+02  0.7414E+02
    -17.787  0.2223E+02  0.7447E+02
    -17.772  0.2219E+02  0.7480E+02
    -17.757  0.2216E+02  0.7513E+02
    -17.742  0.2211E+02  0.7546E+02
    -17.728  0.2205E+02  0.7578E+02
    -17.713  0.2199E+02  0.7611E+02
    -17.698  0.2191E+02  0.7644E+02
    -17.683  0.2184E+02  0.7676E+02
    -17.668  0.2175E+02  0.7709E+02
    -17.653  0.2166E+02  0.7741E+02
    -17.638  0.2157E+02  0.7773E+02
    -17.623  0.2148E+02  0.7805E+02
    -17.608  0.2139E+02  0.7837E+02
    -17.594  0.2130E+02  0.7869E+02
    -17.579  0.2122E+02  0.7900E+02
    -17.564  0.2113E+02  0.7932E+02
    -17.549  0.2105E+02  0.7963E+02
    -17.534  0.2097E+02  0.7994E+02
    -17.519  0.2090E+02  0.8026E+02
    -17.504  0.2083E+02  0.8057E+02
    -17.489  0.2077E+02  0.8087E+02
    -17.474  0.2071E+02  0.8118E+02
    -17.460  0.2066E+02  0.8149E+02
    -17.445  0.2060E+02  0.8180E+02
    -17.430  0.2056E+02  0.8210E+02
    -17.415  0.2052E+02  0.8241E+02
    -17.400  0.2048E+02  0.8271E+02
    -17.385  0.2044E+02  0.8302E+02
    -17.370  0.2042E+02  0.8332E+02
    -17.355  0.2039E+02  0.8363E+02
    -17.340  0.2037E+02  0.8393E+02
    -17.326  0.2035E+02  0.8423E+02
    -17.311  0.2033E+02  0.8454E+02
    -17.296  0.2031E+02  0.8484E+02
    -17.281  0.2029E+02  0.8514E+02
    -17.266  0.2027E+02  0.8544E+02
    -17.251  0.2024E+02  0.8574E+02
    -17.236  0.2021E+02  0.8604E+02
    -17.221  0.2016E+02  0.8634E+02
    -17.206  0.2010E+02  0.8664E+02
    -17.191  0.2003E+02  0.8694E+02
    -17.177  0.1995E+02  0.8724E+02
    -17.162  0.1985E+02  0.8753E+02
    -17.147  0.1974E+02  0.8783E+02
    -17.132  0.1961E+02  0.8812E+02
    -17.117  0.1947E+02  0.8841E+02
    -17.102  0.1931E+02  0.8870E+02
    -17.087  0.1915E+02  0.8898E+02
    -17.072  0.1898E+02  0.8927E+02
    -17.057  0.1881E+02  0.8955E+02
    -17.043  0.1864E+02  0.8982E+02
    -17.028  0.1847E+02  0.9010E+02
    -17.013  0.1830E+02  0.9037E+02
    -16.998  0.1814E+02  0.9064E+02
    -16.983  0.1799E+02  0.9091E+02
    -16.968  0.1785E+02  0.9118E+02
    -16.953  0.1773E+02  0.9144E+02
    -16.938  0.1762E+02  0.9170E+02
    -16.923  0.1753E+02  0.9196E+02
    -16.909  0.1745E+02  0.9222E+02
    -16.894  0.1739E+02  0.9248E+02
    -16.879  0.1736E+02  0.9274E+02
    -16.864  0.1734E+02  0.9300E+02
    -16.849  0.1734E+02  0.9326E+02
    -16.834  0.1735E+02  0.9351E+02
    -16.819  0.1739E+02  0.9377E+02
    -16.804  0.1744E+02  0.9403E+02
    -16.789  0.1751E+02  0.9429E+02
    -16.775  0.1760E+02  0.9456E+02
    -16.760  0.1769E+02  0.9482E+02
    -16.745  0.1780E+02  0.9509E+02
    -16.730  0.1792E+02  0.9535E+02
    -16.715  0.1805E+02  0.9562E+02
    -16.700  0.1818E+02  0.9589E+02
    -16.685  0.1832E+02  0.9616E+02
    -16.670  0.1846E+02  0.9644E+02
    -16.655  0.1861E+02  0.9672E+02
    -16.641  0.1875E+02  0.9700E+02
    -16.626  0.1890E+02  0.9728E+02
    -16.611  0.1905E+02  0.9756E+02
    -16.596  0.1920E+02  0.9785E+02
    -16.581  0.1935E+02  0.9813E+02
    -16.566  0.1950E+02  0.9843E+02
    -16.551  0.1966E+02  0.9872E+02
    -16.536  0.1981E+02  0.9901E+02
    -16.521  0.1996E+02  0.9931E+02
    -16.506  0.2010E+02  0.9961E+02
    -16.492  0.2025E+02  0.9991E+02
    -16.477  0.2038E+02  0.1002E+03
    -16.462  0.2052E+02  0.1005E+03
    -16.447  0.2064E+02  0.1008E+03
    -16.432  0.2076E+02  0.1011E+03
    -16.417  0.2087E+02  0.1014E+03
    -16.402  0.2098E+02  0.1018E+03
    -16.387  0.2108E+02  0.1021E+03
    -16.372  0.2117E+02  0.1024E+03
    -16.358  0.2126E+02  0.1027E+03
    -16.343  0.2135E+02  0.1030E+03
    -16.328  0.2144E+02  0.1033E+03
    -16.313  0.2153E+02  0.1037E+03
    -16.298  0.2163E+02  0.1040E+03
    -16.283  0.2173E+02  0.1043E+03
    -16.268  0.2183E+02  0.1046E+03
    -16.253  0.2195E+02  0.1050E+03
    -16.238  0.2207E+02  0.1053E+03
    -16.224  0.2220E+02  0.1056E+03
    -16.209  0.2233E+02  0.1060E+03
    -16.194  0.2246E+02  0.1063E+03
    -16.179  0.2259E+02  0.1066E+03
    -16.164  0.2271E+02  0.1070E+03
    -16.149  0.2282E+02  0.1073E+03
    -16.134  0.2292E+02  0.1076E+03
    -16.119  0.2301E+02  0.1080E+03
    -16.104  0.2307E+02  0.1083E+03
    -16.090  0.2311E+02  0.1087E+03
    -16.075  0.2313E+02  0.1090E+03
    -16.060  0.2312E+02  0.1094E+03
    -16.045  0.2308E+02  0.1097E+03
    -16.030  0.2301E+02  0.1100E+03
    -16.015  0.2292E+02  0.1104E+03
    -16.000  0.2280E+02  0.1107E+03
    -15.985  0.2266E+02  0.1111E+03
    -15.970  0.2249E+02  0.1114E+03
    -15.955  0.2230E+02  0.1117E+03
    -15.941  0.2209E+02  0.1121E+03
    -15.926  0.2186E+02  0.1124E+03
    -15.911  0.2162E+02  0.1127E+03
    -15.896  0.2136E+02  0.1130E+03
    -15.881  0.2110E+02  0.1133E+03
    -15.866  0.2084E+02  0.1137E+03
    -15.851  0.2058E+02  0.1140E+03
    -15.836  0.2032E+02  0.1143E+03
    -15.821  0.2008E+02  0.1146E+03
    -15.807  0.1985E+02  0.1149E+03
    -15.792  0.1965E+02  0.1151E+03
    -15.777  0.1947E+02  0.1154E+03
    -15.762  0.1933E+02  0.1157E+03
    -15.747  0.1923E+02  0.1160E+03
    -15.732  0.1917E+02  0.1163E+03
    -15.717  0.1916E+02  0.1166E+03
    -15.702  0.1919E+02  0.1169E+03
    -15.687  0.1927E+02  0.1172E+03
    -15.673  0.1940E+02  0.1174E+03
    -15.658  0.1957E+02  0.1177E+03
    -15.643  0.1978E+02  0.1180E+03
    -15.628  0.2003E+02  0.1183E+03
    -15.613  0.2031E+02  0.1186E+03
    -15.598  0.2060E+02  0.1189E+03
    -15.583  0.2090E+02  0.1193E+03
    -15.568  0.2121E+02  0.1196E+03
    -15.553  0.2151E+02  0.1199E+03
    -15.539  0.2179E+02  0.1202E+03
    -15.524  0.2204E+02  0.1205E+03
    -15.509  0.2226E+02  0.1209E+03
    -15.494  0.2244E+02  0.1212E+03
    -15.479  0.2258E+02  0.1215E+03
    -15.464  0.2267E+02  0.1219E+03
    -15.449  0.2271E+02  0.1222E+03
    -15.434  0.2269E+02  0.1226E+03
    -15.419  0.2263E+02  0.1229E+03
    -15.404  0.2253E+02  0.1232E+03
    -15.390  0.2238E+02  0.1236E+03
    -15.375  0.2219E+02  0.1239E+03
    -15.360  0.2197E+02  0.1242E+03
    -15.345  0.2172E+02  0.1245E+03
    -15.330  0.2144E+02  0.1249E+03
    -15.315  0.2115E+02  0.1252E+03
    -15.300  0.2085E+02  0.1255E+03
    -15.285  0.2054E+02  0.1258E+03
    -15.270  0.2023E+02  0.1261E+03
    -15.256  0.1992E+02  0.1264E+03
    -15.241  0.1962E+02  0.1267E+03
    -15.226  0.1933E+02  0.1270E+03
    -15.211  0.1906E+02  0.1273E+03
    -15.196  0.1882E+02  0.1275E+03
    -15.181  0.1859E+02  0.1278E+03
    -15.166  0.1840E+02  0.1281E+03
    -15.151  0.1824E+02  0.1284E+03
    -15.136  0.1812E+02  0.1286E+03
    -15.122  0.1804E+02  0.1289E+03
    -15.107  0.1799E+02  0.1292E+03
    -15.092  0.1799E+02  0.1294E+03
    -15.077  0.1802E+02  0.1297E+03
    -15.062  0.1809E+02  0.1300E+03
    -15.047  0.1820E+02  0.1302E+03
    -15.032  0.1835E+02  0.1305E+03
    -15.017  0.1852E+02  0.1308E+03
    -15.002  0.1871E+02  0.1311E+03
    -14.988  0.1892E+02  0.1313E+03
    -14.973  0.1915E+02  0.1316E+03
    -14.958  0.1938E+02  0.1319E+03
    -14.943  0.1961E+02  0.1322E+03
    -14.928  0.1984E+02  0.1325E+03
    -14.913  0.2005E+02  0.1328E+03
    -14.898  0.2025E+02  0.1331E+03
    -14.883  0.2043E+02  0.1334E+03
    -14.868  0.2058E+02  0.1337E+03
    -14.853  0.2070E+02  0.1340E+03
    -14.839  0.2080E+02  0.1343E+03
    -14.824  0.2086E+02  0.1346E+03
    -14.809  0.2089E+02  0.1350E+03
    -14.794  0.2089E+02  0.1353E+03
    -14.779  0.2087E+02  0.1356E+03
    -14.764  0.2081E+02  0.1359E+03
    -14.749  0.2073E+02  0.1362E+03
    -14.734  0.2063E+02  0.1365E+03
    -14.719  0.2051E+02  0.1368E+03
    -14.705  0.2038E+02  0.1371E+03
    -14.690  0.2023E+02  0.1374E+03
    -14.675  0.2008E+02  0.1377E+03
    -14.660  0.1993E+02  0.1380E+03
    -14.645  0.1979E+02  0.1383E+03
    -14.630  0.1965E+02  0.1386E+03
    -14.615  0.1952E+02  0.1389E+03
    -14.600  0.1940E+02  0.1392E+03
    -14.585  0.1931E+02  0.1395E+03
    -14.571  0.1923E+02  0.1398E+03
    -14.556  0.1918E+02  0.1400E+03
    -14.541  0.1916E+02  0.1403E+03
    -14.526  0.1916E+02  0.1406E+03
    -14.511  0.1920E+02  0.1409E+03
    -14.496  0.1926E+02  0.1412E+03
    -14.481  0.1935E+02  0.1415E+03
    -14.466  0.1948E+02  0.1418E+03
    -14.451  0.1963E+02  0.1421E+03
    -14.437  0.1980E+02  0.1423E+03
    -14.422  0.2000E+02  0.1426E+03
    -14.407  0.2022E+02  0.1429E+03
    -14.392  0.2045E+02  0.1433E+03
    -14.377  0.2069E+02  0.1436E+03
    -14.362  0.2093E+02  0.1439E+03
    -14.347  0.2118E+02  0.1442E+03
    -14.332  0.2141E+02  0.1445E+03
    -14.317  0.2164E+02  0.1448E+03
    -14.303  0.2185E+02  0.1452E+03
    -14.288  0.2205E+02  0.1455E+03
    -14.273  0.2222E+02  0.1458E+03
    -14.258  0.2236E+02  0.1461E+03
    -14.243  0.2248E+02  0.1465E+03
    -14.228  0.2258E+02  0.1468E+03
    -14.213  0.2265E+02  0.1472E+03
    -14.198  0.2270E+02  0.1475E+03
    -14.183  0.2273E+02  0.1478E+03
    -14.168  0.2274E+02  0.1482E+03
    -14.154  0.2274E+02  0.1485E+03
    -14.139  0.2273E+02  0.1488E+03
    -14.124  0.2272E+02  0.1492E+03
    -14.109  0.2272E+02  0.1495E+03
    -14.094  0.2271E+02  0.1499E+03
    -14.079  0.2272E+02  0.1502E+03
    -14.064  0.2274E+02  0.1505E+03
    -14.049  0.2277E+02  0.1509E+03
    -14.034  0.2281E+02  0.1512E+03
    -14.020  0.2286E+02  0.1516E+03
    -14.005  0.2291E+02  0.1519E+03
    -13.990  0.2297E+02  0.1522E+03
    -13.975  0.2303E+02  0.1526E+03
    -13.960  0.2308E+02  0.1529E+03
    -13.945  0.2313E+02  0.1533E+03
    -13.930  0.2315E+02  0.1536E+03
    -13.915  0.2315E+02  0.1540E+03
    -13.900  0.2313E+02  0.1543E+03
    -13.886  0.2308E+02  0.1547E+03
    -13.871  0.2299E+02  0.1550E+03
    -13.856  0.2286E+02  0.1553E+03
    -13.841  0.2271E+02  0.1557E+03
    -13.826  0.2252E+02  0.1560E+03
    -13.811  0.2229E+02  0.1563E+03
    -13.796  0.2204E+02  0.1567E+03
    -13.781  0.2177E+02  0.1570E+03
    -13.766  0.2149E+02  0.1573E+03
    -13.752  0.2119E+02  0.1576E+03
    -13.737  0.2090E+02  0.1579E+03
    -13.722  0.2060E+02  0.1582E+03
    -13.707  0.2032E+02  0.1585E+03
    -13.692  0.2005E+02  0.1588E+03
    -13.677  0.1981E+02  0.1591E+03
    -13.662  0.1959E+02  0.1594E+03
    -13.647  0.1940E+02  0.1597E+03
    -13.632  0.1923E+02  0.1600E+03
    -13.617  0.1910E+02  0.1603E+03
    -13.603  0.1899E+02  0.1606E+03
    -13.588  0.1891E+02  0.1609E+03
    -13.573  0.1887E+02  0.1611E+03
    -13.558  0.1884E+02  0.1614E+03
    -13.543  0.1885E+02  0.1617E+03
    -13.528  0.1888E+02  0.1620E+03
    -13.513  0.1893E+02  0.1623E+03
    -13.498  0.1901E+02  0.1625E+03
    -13.483  0.1911E+02  0.1628E+03
    -13.469  0.1923E+02  0.1631E+03
    -13.454  0.1938E+02  0.1634E+03
    -13.439  0.1955E+02  0.1637E+03
    -13.424  0.1975E+02  0.1640E+03
    -13.409  0.1997E+02  0.1643E+03
    -13.394  0.2021E+02  0.1646E+03
    -13.379  0.2046E+02  0.1649E+03
    -13.364  0.2074E+02  0.1652E+03
    -13.349  0.2102E+02  0.1655E+03
    -13.335  0.2132E+02  0.1658E+03
    -13.320  0.2162E+02  0.1662E+03
    -13.305  0.2192E+02  0.1665E+03
    -13.290  0.2221E+02  0.1668E+03
    -13.275  0.2249E+02  0.1671E+03
    -13.260  0.2275E+02  0.1675E+03
    -13.245  0.2300E+02  0.1678E+03
    -13.230  0.2322E+02  0.1682E+03
    -13.215  0.2342E+02  0.1685E+03
    -13.201  0.2358E+02  0.1689E+03
    -13.186  0.2372E+02  0.1692E+03
    -13.171  0.2382E+02  0.1696E+03
    -13.156  0.2390E+02  0.1699E+03
    -13.141  0.2394E+02  0.1703E+03
    -13.126  0.2396E+02  0.1707E+03
    -13.111  0.2395E+02  0.1710E+03
    -13.096  0.2392E+02  0.1714E+03
    -13.081  0.2386E+02  0.1717E+03
    -13.066  0.2379E+02  0.1721E+03
    -13.052  0.2370E+02  0.1724E+03
    -13.037  0.2360E+02  0.1728E+03
    -13.022  0.2348E+02  0.1731E+03
    -13.007  0.2335E+02  0.1735E+03
    -12.992  0.2321E+02  0.1738E+03
    -12.977  0.2307E+02  0.1742E+03
    -12.962  0.2292E+02  0.1745E+03
    -12.947  0.2277E+02  0.1748E+03
    -12.932  0.2261E+02  0.1752E+03
    -12.918  0.2245E+02  0.1755E+03
    -12.903  0.2230E+02  0.1758E+03
    -12.888  0.2215E+02  0.1762E+03
    -12.873  0.2201E+02  0.1765E+03
    -12.858  0.2188E+02  0.1768E+03
    -12.843  0.2176E+02  0.1772E+03
    -12.828  0.2165E+02  0.1775E+03
    -12.813  0.2157E+02  0.1778E+03
    -12.798  0.2150E+02  0.1781E+03
    -12.784  0.2145E+02  0.1784E+03
    -12.769  0.2143E+02  0.1788E+03
    -12.754  0.2142E+02  0.1791E+03
    -12.739  0.2143E+02  0.1794E+03
    -12.724  0.2146E+02  0.1797E+03
    -12.709  0.2151E+02  0.1800E+03
    -12.694  0.2156E+02  0.1804E+03
    -12.679  0.2162E+02  0.1807E+03
    -12.664  0.2168E+02  0.1810E+03
    -12.650  0.2173E+02  0.1813E+03
    -12.635  0.2179E+02  0.1816E+03
    -12.620  0.2184E+02  0.1820E+03
    -12.605  0.2187E+02  0.1823E+03
    -12.590  0.2191E+02  0.1826E+03
    -12.575  0.2193E+02  0.1830E+03
    -12.560  0.2195E+02  0.1833E+03
    -12.545  0.2197E+02  0.1836E+03
    -12.530  0.2199E+02  0.1839E+03
    -12.515  0.2201E+02  0.1843E+03
    -12.501  0.2205E+02  0.1846E+03
    -12.486  0.2210E+02  0.1849E+03
    -12.471  0.2217E+02  0.1853E+03
    -12.456  0.2226E+02  0.1856E+03
    -12.441  0.2237E+02  0.1859E+03
    -12.426  0.2251E+02  0.1863E+03
    -12.411  0.2267E+02  0.1866E+03
    -12.396  0.2285E+02  0.1869E+03
    -12.381  0.2304E+02  0.1873E+03
    -12.367  0.2325E+02  0.1876E+03
    -12.352  0.2346E+02  0.1880E+03
    -12.337  0.2368E+02  0.1883E+03
    -12.322  0.2388E+02  0.1887E+03
    -12.307  0.2407E+02  0.1890E+03
    -12.292  0.2424E+02  0.1894E+03
    -12.277  0.2439E+02  0.1898E+03
    -12.262  0.2450E+02  0.1901E+03
    -12.247  0.2457E+02  0.1905E+03
    -12.233  0.2461E+02  0.1909E+03
    -12.218  0.2461E+02  0.1912E+03
    -12.203  0.2457E+02  0.1916E+03
    -12.188  0.2450E+02  0.1920E+03
    -12.173  0.2439E+02  0.1923E+03
    -12.158  0.2425E+02  0.1927E+03
    -12.143  0.2408E+02  0.1930E+03
    -12.128  0.2390E+02  0.1934E+03
    -12.113  0.2370E+02  0.1937E+03
    -12.099  0.2349E+02  0.1941E+03
    -12.084  0.2328E+02  0.1944E+03
    -12.069  0.2307E+02  0.1948E+03