 250 250   0   0
  0.5009077E+02  0.2904303E-08  0.2155886E-08  0.2000000E-08  0.5000000E-15
  1.000000000000000E-004
  CAR 
 unknown system                          
      3.40448686    -24.55586908 2000     -3.61811330      1.00000000
    -24.556  0.0000E+00  0.0000E+00
    -24.542  0.0000E+00  0.0000E+00
    -24.528  0.0000E+00  0.0000E+00
    -24.514  0.0000E+00  0.0000E+00
    -24.500  0.0000E+00  0.0000E+00
    -24.486  0.0000E+00  0.0000E+00
    -24.472  0.0000E+00  0.0000E+00
    -24.458  0.0000E+00  0.0000E+00
    -24.444  0.0000E+00  0.0000E+00
    -24.430  0.0000E+00  0.0000E+00
    -24.416  0.0000E+00  0.0000E+00
    -24.402  0.0000E+00  0.0000E+00
    -24.388  0.0000E+00  0.0000E+00
    -24.374  0.0000E+00  0.0000E+00
    -24.360  0.0000E+00  0.0000E+00
    -24.346  0.0000E+00  0.0000E+00
    -24.332  0.0000E+00  0.0000E+00
    -24.318  0.0000E+00  0.0000E+00
    -24.304  0.0000E+00  0.0000E+00
    -24.290  0.0000E+00  0.0000E+00
    -24.276  0.0000E+00  0.0000E+00
    -24.262  0.0000E+00  0.0000E+00
    -24.248  0.0000E+00  0.0000E+00
    -24.234  0.0000E+00  0.0000E+00
    -24.220  0.0000E+00  0.0000E+00
    -24.206  0.0000E+00  0.0000E+00
    -24.192  0.0000E+00  0.0000E+00
    -24.178  0.0000E+00  0.0000E+00
    -24.164  0.0000E+00  0.0000E+00
    -24.150  0.0000E+00  0.0000E+00
    -24.136  0.0000E+00  0.0000E+00
    -24.122  0.0000E+00  0.0000E+00
    -24.108  0.0000E+00  0.0000E+00
    -24.094  0.0000E+00  0.0000E+00
    -24.080  0.0000E+00  0.0000E+00
    -24.066  0.0000E+00  0.0000E+00
    -24.052  0.0000E+00  0.0000E+00
    -24.038  0.0000E+00  0.0000E+00
    -24.024  0.0000E+00  0.0000E+00
    -24.010  0.0000E+00  0.0000E+00
    -23.996  0.0000E+00  0.0000E+00
    -23.982  0.0000E+00  0.0000E+00
    -23.968  0.0000E+00  0.0000E+00
    -23.954  0.0000E+00  0.0000E+00
    -23.940  0.0000E+00  0.0000E+00
    -23.926  0.0000E+00  0.0000E+00
    -23.912  0.0000E+00  0.0000E+00
    -23.898  0.0000E+00  0.0000E+00
    -23.884  0.0000E+00  0.0000E+00
    -23.870  0.0000E+00  0.0000E+00
    -23.857  0.0000E+00  0.0000E+00
    -23.843  0.0000E+00  0.0000E+00
    -23.829  0.0000E+00  0.0000E+00
    -23.815  0.0000E+00  0.0000E+00
    -23.801  0.0000E+00  0.0000E+00
    -23.787  0.0000E+00  0.0000E+00
    -23.773  0.0000E+00  0.0000E+00
    -23.759  0.0000E+00  0.0000E+00
    -23.745  0.0000E+00  0.0000E+00
    -23.731  0.7937E-14  0.1110E-15
    -23.717  0.7937E-14  0.2220E-15
    -23.703  0.2381E-13  0.5551E-15
    -23.689  0.3969E-13  0.1110E-14
    -23.675  0.1032E-12  0.2554E-14
    -23.661  0.2170E-12  0.5588E-14
    -23.647  0.4683E-12  0.1214E-13
    -23.633  0.1012E-11  0.2629E-13
    -23.619  0.2142E-11  0.5625E-13
    -23.605  0.4510E-11  0.1193E-12
    -23.591  0.9383E-11  0.2506E-12
    -23.577  0.1933E-10  0.5210E-12
    -23.563  0.3947E-10  0.1073E-11
    -23.549  0.7977E-10  0.2189E-11
    -23.535  0.1597E-09  0.4422E-11
    -23.521  0.3165E-09  0.8849E-11
    -23.507  0.6212E-09  0.1754E-10
    -23.493  0.1207E-08  0.3443E-10
    -23.479  0.2324E-08  0.6693E-10
    -23.465  0.4430E-08  0.1289E-09
    -23.451  0.8362E-08  0.2459E-09
    -23.437  0.1563E-07  0.4645E-09
    -23.423  0.2893E-07  0.8691E-09
    -23.409  0.5303E-07  0.1611E-08
    -23.395  0.9626E-07  0.2957E-08
    -23.381  0.1730E-06  0.5378E-08
    -23.367  0.3080E-06  0.9686E-08
    -23.353  0.5429E-06  0.1728E-07
    -23.339  0.9478E-06  0.3054E-07
    -23.325  0.1638E-05  0.5345E-07
    -23.311  0.2804E-05  0.9268E-07
    -23.297  0.4754E-05  0.1592E-06
    -23.283  0.7980E-05  0.2708E-06
    -23.269  0.1327E-04  0.4564E-06
    -23.255  0.2184E-04  0.7618E-06
    -23.241  0.3560E-04  0.1260E-05
    -23.227  0.5747E-04  0.2064E-05
    -23.213  0.9187E-04  0.3349E-05
    -23.199  0.1454E-03  0.5383E-05
    -23.185  0.2280E-03  0.8572E-05
    -23.171  0.3539E-03  0.1352E-04
    -23.157  0.5441E-03  0.2113E-04
    -23.143  0.8283E-03  0.3272E-04
    -23.129  0.1249E-02  0.5019E-04
    -23.115  0.1864E-02  0.7626E-04
    -23.101  0.2756E-02  0.1148E-03
    -23.087  0.4035E-02  0.1712E-03
    -23.073  0.5850E-02  0.2531E-03
    -23.059  0.8398E-02  0.3705E-03
    -23.045  0.1194E-01  0.5375E-03
    -23.031  0.1681E-01  0.7727E-03
    -23.017  0.2344E-01  0.1100E-02
    -23.003  0.3236E-01  0.1553E-02
    -22.989  0.4424E-01  0.2172E-02
    -22.975  0.5990E-01  0.3010E-02
    -22.961  0.8031E-01  0.4133E-02
    -22.947  0.1066E+00  0.5624E-02
    -22.933  0.1402E+00  0.7586E-02
    -22.919  0.1826E+00  0.1014E-01
    -22.905  0.2354E+00  0.1343E-01
    -22.891  0.3006E+00  0.1764E-01
    -22.877  0.3802E+00  0.2296E-01
    -22.863  0.4762E+00  0.2962E-01
    -22.849  0.5906E+00  0.3788E-01
    -22.835  0.7255E+00  0.4802E-01
    -22.821  0.8825E+00  0.6037E-01
    -22.807  0.1063E+01  0.7524E-01
    -22.793  0.1269E+01  0.9299E-01
    -22.779  0.1500E+01  0.1140E+00
    -22.766  0.1755E+01  0.1385E+00
    -22.752  0.2035E+01  0.1670E+00
    -22.738  0.2338E+01  0.1997E+00
    -22.724  0.2661E+01  0.2369E+00
    -22.710  0.3000E+01  0.2789E+00
    -22.696  0.3351E+01  0.3257E+00
    -22.682  0.3710E+01  0.3776E+00
    -22.668  0.4071E+01  0.4346E+00
    -22.654  0.4428E+01  0.4965E+00
    -22.640  0.4776E+01  0.5633E+00
    -22.626  0.5111E+01  0.6348E+00
    -22.612  0.5426E+01  0.7107E+00
    -22.598  0.5718E+01  0.7906E+00
    -22.584  0.5985E+01  0.8744E+00
    -22.570  0.6225E+01  0.9614E+00
    -22.556  0.6440E+01  0.1052E+01
    -22.542  0.6630E+01  0.1144E+01
    -22.528  0.6801E+01  0.1239E+01
    -22.514  0.6956E+01  0.1337E+01
    -22.500  0.7103E+01  0.1436E+01
    -22.486  0.7249E+01  0.1537E+01
    -22.472  0.7403E+01  0.1641E+01
    -22.458  0.7573E+01  0.1747E+01
    -22.444  0.7769E+01  0.1856E+01
    -22.430  0.7998E+01  0.1967E+01
    -22.416  0.8268E+01  0.2083E+01
    -22.402  0.8584E+01  0.2203E+01
    -22.388  0.8951E+01  0.2328E+01
    -22.374  0.9371E+01  0.2459E+01
    -22.360  0.9846E+01  0.2597E+01
    -22.346  0.1037E+02  0.2742E+01
    -22.332  0.1095E+02  0.2895E+01
    -22.318  0.1157E+02  0.3057E+01
    -22.304  0.1223E+02  0.3228E+01
    -22.290  0.1292E+02  0.3409E+01
    -22.276  0.1363E+02  0.3600E+01
    -22.262  0.1435E+02  0.3800E+01
    -22.248  0.1507E+02  0.4011E+01
    -22.234  0.1578E+02  0.4232E+01
    -22.220  0.1648E+02  0.4462E+01
    -22.206  0.1714E+02  0.4702E+01
    -22.192  0.1777E+02  0.4951E+01
    -22.178  0.1835E+02  0.5207E+01
    -22.164  0.1889E+02  0.5472E+01
    -22.150  0.1937E+02  0.5742E+01
    -22.136  0.1979E+02  0.6019E+01
    -22.122  0.2016E+02  0.6301E+01
    -22.108  0.2047E+02  0.6588E+01
    -22.094  0.2074E+02  0.6878E+01
    -22.080  0.2095E+02  0.7171E+01
    -22.066  0.2113E+02  0.7466E+01
    -22.052  0.2128E+02  0.7764E+01
    -22.038  0.2141E+02  0.8063E+01
    -22.024  0.2153E+02  0.8364E+01
    -22.010  0.2165E+02  0.8667E+01
    -21.996  0.2179E+02  0.8972E+01
    -21.982  0.2195E+02  0.9279E+01
    -21.968  0.2215E+02  0.9589E+01
    -21.954  0.2241E+02  0.9902E+01
    -21.940  0.2271E+02  0.1022E+02
    -21.926  0.2308E+02  0.1054E+02
    -21.912  0.2352E+02  0.1087E+02
    -21.898  0.2403E+02  0.1121E+02
    -21.884  0.2461E+02  0.1155E+02
    -21.870  0.2525E+02  0.1191E+02
    -21.856  0.2596E+02  0.1227E+02
    -21.842  0.2672E+02  0.1264E+02
    -21.828  0.2752E+02  0.1303E+02
    -21.814  0.2836E+02  0.1342E+02
    -21.800  0.2922E+02  0.1383E+02
    -21.786  0.3009E+02  0.1425E+02
    -21.772  0.3096E+02  0.1469E+02
    -21.758  0.3180E+02  0.1513E+02
    -21.744  0.3262E+02  0.1559E+02
    -21.730  0.3339E+02  0.1605E+02
    -21.716  0.3411E+02  0.1653E+02
    -21.702  0.3477E+02  0.1702E+02
    -21.688  0.3537E+02  0.1751E+02
    -21.675  0.3589E+02  0.1801E+02
    -21.661  0.3634E+02  0.1852E+02
    -21.647  0.3672E+02  0.1904E+02
    -21.633  0.3702E+02  0.1955E+02
    -21.619  0.3726E+02  0.2008E+02
    -21.605  0.3743E+02  0.2060E+02
    -21.591  0.3754E+02  0.2112E+02
    -21.577  0.3760E+02  0.2165E+02
    -21.563  0.3761E+02  0.2218E+02
    -21.549  0.3758E+02  0.2270E+02
    -21.535  0.3752E+02  0.2323E+02
    -21.521  0.3743E+02  0.2375E+02
    -21.507  0.3732E+02  0.2427E+02
    -21.493  0.3719E+02  0.2479E+02
    -21.479  0.3704E+02  0.2531E+02
    -21.465  0.3689E+02  0.2583E+02
    -21.451  0.3673E+02  0.2634E+02
    -21.437  0.3656E+02  0.2685E+02
    -21.423  0.3639E+02  0.2736E+02
    -21.409  0.3622E+02  0.2787E+02
    -21.395  0.3605E+02  0.2837E+02
    -21.381  0.3587E+02  0.2887E+02
    -21.367  0.3570E+02  0.2937E+02
    -21.353  0.3553E+02  0.2987E+02
    -21.339  0.3536E+02  0.3036E+02
    -21.325  0.3520E+02  0.3086E+02
    -21.311  0.3504E+02  0.3135E+02
    -21.297  0.3488E+02  0.3183E+02
    -21.283  0.3474E+02  0.3232E+02
    -21.269  0.3460E+02  0.3280E+02
    -21.255  0.3447E+02  0.3329E+02
    -21.241  0.3436E+02  0.3377E+02
    -21.227  0.3425E+02  0.3425E+02
    -21.213  0.3415E+02  0.3472E+02
    -21.199  0.3407E+02  0.3520E+02
    -21.185  0.3399E+02  0.3568E+02
    -21.171  0.3393E+02  0.3615E+02
    -21.157  0.3387E+02  0.3662E+02
    -21.143  0.3383E+02  0.3710E+02
    -21.129  0.3379E+02  0.3757E+02
    -21.115  0.3377E+02  0.3804E+02
    -21.101  0.3376E+02  0.3851E+02
    -21.087  0.3376E+02  0.3899E+02
    -21.073  0.3378E+02  0.3946E+02
    -21.059  0.3381E+02  0.3993E+02
    -21.045  0.3385E+02  0.4041E+02
    -21.031  0.3392E+02  0.4088E+02
    -21.017  0.3401E+02  0.4136E+02
    -21.003  0.3411E+02  0.4183E+02
    -20.989  0.3425E+02  0.4231E+02
    -20.975  0.3440E+02  0.4279E+02
    -20.961  0.3458E+02  0.4328E+02
    -20.947  0.3478E+02  0.4376E+02
    -20.933  0.3500E+02  0.4425E+02
    -20.919  0.3524E+02  0.4475E+02
    -20.905  0.3550E+02  0.4524E+02
    -20.891  0.3576E+02  0.4574E+02
    -20.877  0.3602E+02  0.4625E+02
    -20.863  0.3628E+02  0.4675E+02
    -20.849  0.3654E+02  0.4726E+02
    -20.835  0.3678E+02  0.4778E+02
    -20.821  0.3701E+02  0.4830E+02
    -20.807  0.3721E+02  0.4882E+02
    -20.793  0.3739E+02  0.4934E+02
    -20.779  0.3755E+02  0.4987E+02
    -20.765  0.3767E+02  0.5039E+02
    -20.751  0.3777E+02  0.5092E+02
    -20.737  0.3784E+02  0.5145E+02
    -20.723  0.3789E+02  0.5198E+02
    -20.709  0.3791E+02  0.5251E+02
    -20.695  0.3792E+02  0.5304E+02
    -20.681  0.3791E+02  0.5357E+02
    -20.667  0.3789E+02  0.5410E+02
    -20.653  0.3787E+02  0.5463E+02
    -20.639  0.3785E+02  0.5516E+02
    -20.625  0.3783E+02  0.5569E+02
    -20.611  0.3781E+02  0.5622E+02
    -20.597  0.3780E+02  0.5675E+02
    -20.584  0.3780E+02  0.5728E+02
    -20.570  0.3780E+02  0.5780E+02
    -20.556  0.3781E+02  0.5833E+02
    -20.542  0.3783E+02  0.5886E+02
    -20.528  0.3785E+02  0.5939E+02
    -20.514  0.3788E+02  0.5992E+02
    -20.500  0.3790E+02  0.6045E+02
    -20.486  0.3792E+02  0.6098E+02
    -20.472  0.3794E+02  0.6151E+02
    -20.458  0.3795E+02  0.6204E+02
    -20.444  0.3795E+02  0.6257E+02
    -20.430  0.3795E+02  0.6311E+02
    -20.416  0.3794E+02  0.6364E+02
    -20.402  0.3792E+02  0.6417E+02
    -20.388  0.3790E+02  0.6470E+02
    -20.374  0.3789E+02  0.6523E+02
    -20.360  0.3787E+02  0.6576E+02
    -20.346  0.3786E+02  0.6629E+02
    -20.332  0.3786E+02  0.6682E+02
    -20.318  0.3787E+02  0.6734E+02
    -20.304  0.3790E+02  0.6788E+02
    -20.290  0.3795E+02  0.6841E+02
    -20.276  0.3802E+02  0.6894E+02
    -20.262  0.3811E+02  0.6947E+02
    -20.248  0.3822E+02  0.7001E+02
    -20.234  0.3835E+02  0.7054E+02
    -20.220  0.3850E+02  0.7108E+02
    -20.206  0.3867E+02  0.7162E+02
    -20.192  0.3885E+02  0.7216E+02
    -20.178  0.3905E+02  0.7271E+02
    -20.164  0.3926E+02  0.7326E+02
    -20.150  0.3948E+02  0.7381E+02
    -20.136  0.3970E+02  0.7437E+02
    -20.122  0.3992E+02  0.7493E+02
    -20.108  0.4013E+02  0.7549E+02
    -20.094  0.4034E+02  0.7605E+02
    -20.080  0.4053E+02  0.7662E+02
    -20.066  0.4071E+02  0.7719E+02
    -20.052  0.4087E+02  0.7776E+02
    -20.038  0.4101E+02  0.7833E+02
    -20.024  0.4112E+02  0.7891E+02
    -20.010  0.4121E+02  0.7948E+02
    -19.996  0.4126E+02  0.8006E+02
    -19.982  0.4129E+02  0.8064E+02
    -19.968  0.4128E+02  0.8122E+02
    -19.954  0.4123E+02  0.8179E+02
    -19.940  0.4115E+02  0.8237E+02
    -19.926  0.4104E+02  0.8294E+02
    -19.912  0.4089E+02  0.8351E+02
    -19.898  0.4071E+02  0.8408E+02
    -19.884  0.4051E+02  0.8465E+02
    -19.870  0.4028E+02  0.8521E+02
    -19.856  0.4004E+02  0.8577E+02
    -19.842  0.3978E+02  0.8633E+02
    -19.828  0.3952E+02  0.8688E+02
    -19.814  0.3926E+02  0.8743E+02
    -19.800  0.3901E+02  0.8798E+02
    -19.786  0.3877E+02  0.8852E+02
    -19.772  0.3856E+02  0.8906E+02
    -19.758  0.3837E+02  0.8960E+02
    -19.744  0.3822E+02  0.9013E+02
    -19.730  0.3810E+02  0.9066E+02
    -19.716  0.3802E+02  0.9120E+02
    -19.702  0.3799E+02  0.9173E+02
    -19.688  0.3799E+02  0.9226E+02
    -19.674  0.3804E+02  0.9279E+02
    -19.660  0.3813E+02  0.9332E+02
    -19.646  0.3825E+02  0.9386E+02
    -19.632  0.3841E+02  0.9440E+02
    -19.618  0.3861E+02  0.9494E+02
    -19.604  0.3883E+02  0.9548E+02
    -19.590  0.3907E+02  0.9603E+02
    -19.576  0.3934E+02  0.9658E+02
    -19.562  0.3962E+02  0.9713E+02
    -19.548  0.3992E+02  0.9769E+02
    -19.534  0.4023E+02  0.9825E+02
    -19.520  0.4055E+02  0.9882E+02
    -19.507  0.4087E+02  0.9939E+02
    -19.493  0.4119E+02  0.9997E+02
    -19.479  0.4152E+02  0.1005E+03
    -19.465  0.4183E+02  0.1011E+03
    -19.451  0.4214E+02  0.1017E+03
    -19.437  0.4243E+02  0.1023E+03
    -19.423  0.4271E+02  0.1029E+03
    -19.409  0.4296E+02  0.1035E+03
    -19.395  0.4318E+02  0.1041E+03
    -19.381  0.4337E+02  0.1047E+03
    -19.367  0.4352E+02  0.1053E+03
    -19.353  0.4363E+02  0.1059E+03
    -19.339  0.4370E+02  0.1066E+03
    -19.325  0.4372E+02  0.1072E+03
    -19.311  0.4368E+02  0.1078E+03
    -19.297  0.4360E+02  0.1084E+03
    -19.283  0.4347E+02  0.1090E+03
    -19.269  0.4329E+02  0.1096E+03
    -19.255  0.4307E+02  0.1102E+03
    -19.241  0.4282E+02  0.1108E+03
    -19.227  0.4253E+02  0.1114E+03
    -19.213  0.4221E+02  0.1120E+03
    -19.199  0.4188E+02  0.1126E+03
    -19.185  0.4154E+02  0.1132E+03
    -19.171  0.4119E+02  0.1137E+03
    -19.157  0.4085E+02  0.1143E+03
    -19.143  0.4052E+02  0.1149E+03
    -19.129  0.4021E+02  0.1154E+03
    -19.115  0.3993E+02  0.1160E+03
    -19.101  0.3967E+02  0.1165E+03
    -19.087  0.3945E+02  0.1171E+03
    -19.073  0.3927E+02  0.1176E+03
    -19.059  0.3912E+02  0.1182E+03
    -19.045  0.3901E+02  0.1187E+03
    -19.031  0.3893E+02  0.1193E+03
    -19.017  0.3888E+02  0.1198E+03
    -19.003  0.3886E+02  0.1204E+03
    -18.989  0.3887E+02  0.1209E+03
    -18.975  0.3890E+02  0.1215E+03
    -18.961  0.3894E+02  0.1220E+03
    -18.947  0.3899E+02  0.1225E+03
    -18.933  0.3905E+02  0.1231E+03
    -18.919  0.3911E+02  0.1236E+03
    -18.905  0.3916E+02  0.1242E+03
    -18.891  0.3922E+02  0.1247E+03
    -18.877  0.3926E+02  0.1253E+03
    -18.863  0.3930E+02  0.1258E+03
    -18.849  0.3934E+02  0.1264E+03
    -18.835  0.3937E+02  0.1269E+03
    -18.821  0.3940E+02  0.1275E+03
    -18.807  0.3943E+02  0.1280E+03
    -18.793  0.3947E+02  0.1286E+03
    -18.779  0.3952E+02  0.1291E+03
    -18.765  0.3958E+02  0.1297E+03
    -18.751  0.3966E+02  0.1303E+03
    -18.737  0.3976E+02  0.1308E+03
    -18.723  0.3988E+02  0.1314E+03
    -18.709  0.4003E+02  0.1319E+03
    -18.695  0.4020E+02  0.1325E+03
    -18.681  0.4039E+02  0.1331E+03
    -18.667  0.4061E+02  0.1336E+03
    -18.653  0.4084E+02  0.1342E+03
    -18.639  0.4108E+02  0.1348E+03
    -18.625  0.4133E+02  0.1353E+03
    -18.611  0.4157E+02  0.1359E+03
    -18.597  0.4182E+02  0.1365E+03
    -18.583  0.4205E+02  0.1371E+03
    -18.569  0.4226E+02  0.1377E+03
    -18.555  0.4245E+02  0.1383E+03
    -18.541  0.4261E+02  0.1389E+03
    -18.527  0.4274E+02  0.1395E+03
    -18.513  0.4284E+02  0.1401E+03
    -18.499  0.4291E+02  0.1407E+03
    -18.485  0.4295E+02  0.1413E+03
    -18.471  0.4296E+02  0.1419E+03
    -18.457  0.4294E+02  0.1425E+03
    -18.443  0.4290E+02  0.1431E+03
    -18.429  0.4283E+02  0.1437E+03
    -18.416  0.4275E+02  0.1443E+03
    -18.402  0.4266E+02  0.1449E+03
    -18.388  0.4255E+02  0.1455E+03
    -18.374  0.4244E+02  0.1461E+03
    -18.360  0.4232E+02  0.1467E+03
    -18.346  0.4219E+02  0.1472E+03
    -18.332  0.4206E+02  0.1478E+03
    -18.318  0.4193E+02  0.1484E+03
    -18.304  0.4180E+02  0.1490E+03
    -18.290  0.4166E+02  0.1496E+03
    -18.276  0.4152E+02  0.1502E+03
    -18.262  0.4138E+02  0.1507E+03
    -18.248  0.4123E+02  0.1513E+03
    -18.234  0.4108E+02  0.1519E+03
    -18.220  0.4092E+02  0.1525E+03
    -18.206  0.4076E+02  0.1530E+03
    -18.192  0.4060E+02  0.1536E+03
    -18.178  0.4044E+02  0.1542E+03
    -18.164  0.4027E+02  0.1547E+03
    -18.150  0.4012E+02  0.1553E+03
    -18.136  0.3996E+02  0.1559E+03
    -18.122  0.3982E+02  0.1564E+03
    -18.108  0.3970E+02  0.1570E+03
    -18.094  0.3959E+02  0.1575E+03
    -18.080  0.3951E+02  0.1581E+03
    -18.066  0.3945E+02  0.1586E+03
    -18.052  0.3942E+02  0.1592E+03
    -18.038  0.3943E+02  0.1597E+03
    -18.024  0.3947E+02  0.1603E+03
    -18.010  0.3954E+02  0.1608E+03
    -17.996  0.3966E+02  0.1614E+03
    -17.982  0.3981E+02  0.1619E+03
    -17.968  0.3999E+02  0.1625E+03
    -17.954  0.4021E+02  0.1631E+03
    -17.940  0.4045E+02  0.1636E+03
    -17.926  0.4072E+02  0.1642E+03
    -17.912  0.4100E+02  0.1648E+03
    -17.898  0.4130E+02  0.1654E+03
    -17.884  0.4161E+02  0.1659E+03
    -17.870  0.4192E+02  0.1665E+03
    -17.856  0.4222E+02  0.1671E+03
    -17.842  0.4250E+02  0.1677E+03
    -17.828  0.4277E+02  0.1683E+03
    -17.814  0.4302E+02  0.1689E+03
    -17.800  0.4323E+02  0.1695E+03
    -17.786  0.4341E+02  0.1701E+03
    -17.772  0.4356E+02  0.1707E+03
    -17.758  0.4367E+02  0.1713E+03
    -17.744  0.4374E+02  0.1720E+03
    -17.730  0.4377E+02  0.1726E+03
    -17.716  0.4377E+02  0.1732E+03
    -17.702  0.4373E+02  0.1738E+03
    -17.688  0.4366E+02  0.1744E+03
    -17.674  0.4356E+02  0.1750E+03
    -17.660  0.4343E+02  0.1756E+03
    -17.646  0.4329E+02  0.1762E+03
    -17.632  0.4312E+02  0.1768E+03
    -17.618  0.4294E+02  0.1774E+03
    -17.604  0.4276E+02  0.1780E+03
    -17.590  0.4257E+02  0.1786E+03
    -17.576  0.4238E+02  0.1792E+03
    -17.562  0.4220E+02  0.1798E+03
    -17.548  0.4202E+02  0.1804E+03
    -17.534  0.4187E+02  0.1810E+03
    -17.520  0.4173E+02  0.1816E+03
    -17.506  0.4161E+02  0.1821E+03
    -17.492  0.4152E+02  0.1827E+03
    -17.478  0.4146E+02  0.1833E+03
    -17.464  0.4142E+02  0.1839E+03
    -17.450  0.4141E+02  0.1845E+03
    -17.436  0.4143E+02  0.1850E+03
    -17.422  0.4146E+02  0.1856E+03
    -17.408  0.4152E+02  0.1862E+03
    -17.394  0.4159E+02  0.1868E+03
    -17.380  0.4166E+02  0.1874E+03
    -17.366  0.4173E+02  0.1879E+03
    -17.352  0.4180E+02  0.1885E+03
    -17.338  0.4184E+02  0.1891E+03
    -17.325  0.4187E+02  0.1897E+03
    -17.311  0.4187E+02  0.1903E+03
    -17.297  0.4184E+02  0.1909E+03
    -17.283  0.4177E+02  0.1915E+03
    -17.269  0.4166E+02  0.1920E+03
    -17.255  0.4152E+02  0.1926E+03
    -17.241  0.4134E+02  0.1932E+03
    -17.227  0.4113E+02  0.1938E+03
    -17.213  0.4090E+02  0.1943E+03
    -17.199  0.4064E+02  0.1949E+03
    -17.185  0.4038E+02  0.1955E+03
    -17.171  0.4011E+02  0.1960E+03
    -17.157  0.3984E+02  0.1966E+03
    -17.143  0.3959E+02  0.1972E+03
    -17.129  0.3936E+02  0.1977E+03
    -17.115  0.3915E+02  0.1983E+03
    -17.101  0.3898E+02  0.1988E+03
    -17.087  0.3883E+02  0.1993E+03
    -17.073  0.3872E+02  0.1999E+03
    -17.059  0.3864E+02  0.2004E+03
    -17.045  0.3858E+02  0.2010E+03
    -17.031  0.3856E+02  0.2015E+03
    -17.017  0.3855E+02  0.2020E+03
    -17.003  0.3856E+02  0.2026E+03
    -16.989  0.3858E+02  0.2031E+03
    -16.975  0.3859E+02  0.2037E+03
    -16.961  0.3861E+02  0.2042E+03
    -16.947  0.3861E+02  0.2047E+03
    -16.933  0.3859E+02  0.2053E+03
    -16.919  0.3856E+02  0.2058E+03
    -16.905  0.3851E+02  0.2064E+03
    -16.891  0.3844E+02  0.2069E+03
    -16.877  0.3834E+02  0.2074E+03
    -16.863  0.3823E+02  0.2080E+03
    -16.849  0.3811E+02  0.2085E+03
    -16.835  0.3798E+02  0.2090E+03
    -16.821  0.3785E+02  0.2096E+03
    -16.807  0.3773E+02  0.2101E+03
    -16.793  0.3762E+02  0.2106E+03
    -16.779  0.3754E+02  0.2111E+03
    -16.765  0.3748E+02  0.2117E+03
    -16.751  0.3745E+02  0.2122E+03
    -16.737  0.3747E+02  0.2127E+03
    -16.723  0.3752E+02  0.2132E+03
    -16.709  0.3763E+02  0.2138E+03
    -16.695  0.3777E+02  0.2143E+03
    -16.681  0.3796E+02  0.2148E+03
    -16.667  0.3819E+02  0.2154E+03
    -16.653  0.3845E+02  0.2159E+03
    -16.639  0.3875E+02  0.2164E+03
    -16.625  0.3906E+02  0.2170E+03
    -16.611  0.3939E+02  0.2175E+03
    -16.597  0.3972E+02  0.2181E+03
    -16.583  0.4005E+02  0.2186E+03
    -16.569  0.4036E+02  0.2192E+03
    -16.555  0.4065E+02  0.2198E+03
    -16.541  0.4091E+02  0.2204E+03
    -16.527  0.4112E+02  0.2209E+03
    -16.513  0.4129E+02  0.2215E+03
    -16.499  0.4141E+02  0.2221E+03
    -16.485  0.4148E+02  0.2227E+03
    -16.471  0.4149E+02  0.2232E+03
    -16.457  0.4144E+02  0.2238E+03
    -16.443  0.4134E+02  0.2244E+03
    -16.429  0.4118E+02  0.2250E+03
    -16.415  0.4098E+02  0.2256E+03
    -16.401  0.4075E+02  0.2261E+03
    -16.387  0.4048E+02  0.2267E+03
    -16.373  0.4018E+02  0.2273E+03
    -16.359  0.3988E+02  0.2278E+03
    -16.345  0.3957E+02  0.2284E+03
    -16.331  0.3926E+02  0.2289E+03
    -16.317  0.3896E+02  0.2295E+03
    -16.303  0.3869E+02  0.2300E+03
    -16.289  0.3845E+02  0.2305E+03
    -16.275  0.3825E+02  0.2311E+03
    -16.261  0.3809E+02  0.2316E+03
    -16.247  0.3798E+02  0.2321E+03
    -16.234  0.3791E+02  0.2327E+03
    -16.220  0.3790E+02  0.2332E+03
    -16.206  0.3794E+02  0.2337E+03
    -16.192  0.3803E+02  0.2343E+03
    -16.178  0.3817E+02  0.2348E+03
    -16.164  0.3836E+02  0.2353E+03
    -16.150  0.3858E+02  0.2359E+03
    -16.136  0.3883E+02  0.2364E+03
    -16.122  0.3912E+02  0.2370E+03
    -16.108  0.3942E+02  0.2375E+03
    -16.094  0.3974E+02  0.2381E+03
    -16.080  0.4006E+02  0.2386E+03
    -16.066  0.4038E+02  0.2392E+03
    -16.052  0.4069E+02  0.2398E+03
    -16.038  0.4099E+02  0.2403E+03
    -16.024  0.4127E+02  0.2409E+03
    -16.010  0.4153E+02  0.2415E+03
    -15.996  0.4176E+02  0.2421E+03
    -15.982  0.4195E+02  0.2427E+03
    -15.968  0.4211E+02  0.2433E+03
    -15.954  0.4224E+02  0.2438E+03
    -15.940  0.4234E+02  0.2444E+03
    -15.926  0.4240E+02  0.2450E+03
    -15.912  0.4242E+02  0.2456E+03
    -15.898  0.4242E+02  0.2462E+03
    -15.884  0.4239E+02  0.2468E+03
    -15.870  0.4234E+02  0.2474E+03
    -15.856  0.4227E+02  0.2480E+03
    -15.842  0.4218E+02  0.2486E+03
    -15.828  0.4208E+02  0.2492E+03
    -15.814  0.4197E+02  0.2498E+03
    -15.800  0.4185E+02  0.2503E+03
    -15.786  0.4174E+02  0.2509E+03
    -15.772  0.4162E+02  0.2515E+03
    -15.758  0.4152E+02  0.2521E+03
    -15.744  0.4142E+02  0.2527E+03
    -15.730  0.4134E+02  0.2532E+03
    -15.716  0.4127E+02  0.2538E+03
    -15.702  0.4122E+02  0.2544E+03
    -15.688  0.4118E+02  0.2550E+03
    -15.674  0.4117E+02  0.2556E+03
    -15.660  0.4118E+02  0.2561E+03
    -15.646  0.4120E+02  0.2567E+03
    -15.632  0.4126E+02  0.2573E+03
    -15.618  0.4133E+02  0.2579E+03
    -15.604  0.4142E+02  0.2584E+03
    -15.590  0.4153E+02  0.2590E+03
    -15.576  0.4166E+02  0.2596E+03
    -15.562  0.4181E+02  0.2602E+03
    -15.548  0.4197E+02  0.2608E+03
    -15.534  0.4215E+02  0.2614E+03
    -15.520  0.4233E+02  0.2620E+03
    -15.506  0.4252E+02  0.2625E+03
    -15.492  0.4271E+02  0.2631E+03
    -15.478  0.4289E+02  0.2637E+03
    -15.464  0.4306E+02  0.2643E+03
    -15.450  0.4323E+02  0.2650E+03
    -15.436  0.4337E+02  0.2656E+03
    -15.422  0.4349E+02  0.2662E+03
    -15.408  0.4358E+02  0.2668E+03
    -15.394  0.4363E+02  0.2674E+03
    -15.380  0.4365E+02  0.2680E+03
    -15.366  0.4363E+02  0.2686E+03
    -15.352  0.4356E+02  0.2692E+03
    -15.338  0.4346E+02  0.2698E+03
    -15.324  0.4330E+02  0.2704E+03
    -15.310  0.4310E+02  0.2710E+03
    -15.296  0.4286E+02  0.2716E+03
    -15.282  0.4258E+02  0.2722E+03
    -15.268  0.4227E+02  0.2728E+03
    -15.254  0.4192E+02  0.2734E+03
    -15.240  0.4154E+02  0.2740E+03
    -15.226  0.4115E+02  0.2746E+03
    -15.212  0.4073E+02  0.2751E+03
    -15.198  0.4031E+02  0.2757E+03
    -15.184  0.3988E+02  0.2763E+03
    -15.170  0.3945E+02  0.2768E+03
    -15.156  0.3903E+02  0.2774E+03
    -15.143  0.3862E+02  0.2779E+03
    -15.129  0.3824E+02  0.2784E+03
    -15.115  0.3788E+02  0.2790E+03
    -15.101  0.3754E+02  0.2795E+03
    -15.087  0.3725E+02  0.2800E+03
    -15.073  0.3699E+02  0.2805E+03
    -15.059  0.3677E+02  0.2810E+03
    -15.045  0.3660E+02  0.2815E+03
    -15.031  0.3648E+02  0.2821E+03
    -15.017  0.3641E+02  0.2826E+03
    -15.003  0.3639E+02  0.2831E+03
    -14.989  0.3643E+02  0.2836E+03
    -14.975  0.3652E+02  0.2841E+03
    -14.961  0.3667E+02  0.2846E+03
    -14.947  0.3687E+02  0.2851E+03
    -14.933  0.3712E+02  0.2856E+03
    -14.919  0.3743E+02  0.2862E+03
    -14.905  0.3778E+02  0.2867E+03
    -14.891  0.3817E+02  0.2872E+03
    -14.877  0.3861E+02  0.2878E+03
    -14.863  0.3907E+02  0.2883E+03
    -14.849  0.3957E+02  0.2889E+03
    -14.835  0.4009E+02  0.2894E+03
    -14.821  0.4063E+02  0.2900E+03
    -14.807  0.4117E+02  0.2906E+03
    -14.793  0.4172E+02  0.2912E+03
    -14.779  0.4225E+02  0.2917E+03
    -14.765  0.4278E+02  0.2923E+03
    -14.751  0.4327E+02  0.2930E+03
    -14.737  0.4374E+02  0.2936E+03
    -14.723  0.4417E+02  0.2942E+03
    -14.709  0.4455E+02  0.2948E+03
    -14.695  0.4488E+02  0.2954E+03
    -14.681  0.4515E+02  0.2961E+03
    -14.667  0.4536E+02  0.2967E+03
    -14.653  0.4551E+02  0.2973E+03
    -14.639  0.4559E+02  0.2980E+03
    -14.625  0.4561E+02  0.2986E+03
    -14.611  0.4557E+02  0.2992E+03
    -14.597  0.4547E+02  0.2999E+03
    -14.583  0.4532E+02  0.3005E+03
    -14.569  0.4512E+02  0.3011E+03
    -14.555  0.4489E+02  0.3018E+03
    -14.541  0.4462E+02  0.3024E+03
    -14.527  0.4433E+02  0.3030E+03
    -14.513  0.4403E+02  0.3036E+03
    -14.499  0.4373E+02  0.3042E+03
    -14.485  0.4343E+02  0.3049E+03
    -14.471  0.4314E+02  0.3055E+03
    -14.457  0.4287E+02  0.3061E+03
    -14.443  0.4263E+02  0.3067E+03
    -14.429  0.4242E+02  0.3072E+03
    -14.415  0.4224E+02  0.3078E+03
    -14.401  0.4209E+02  0.3084E+03
    -14.387  0.4197E+02  0.3090E+03
    -14.373  0.4189E+02  0.3096E+03
    -14.359  0.4184E+02  0.3102E+03
    -14.345  0.4182E+02  0.3108E+03
    -14.331  0.4183E+02  0.3114E+03
    -14.317  0.4186E+02  0.3119E+03
    -14.303  0.4192E+02  0.3125E+03
    -14.289  0.4199E+02  0.3131E+03
    -14.275  0.4207E+02  0.3137E+03
    -14.261  0.4216E+02  0.3143E+03
    -14.247  0.4226E+02  0.3149E+03
    -14.233  0.4237E+02  0.3155E+03
    -14.219  0.4248E+02  0.3161E+03
    -14.205  0.4258E+02  0.3167E+03
    -14.191  0.4269E+02  0.3173E+03
    -14.177  0.4278E+02  0.3179E+03
    -14.163  0.4287E+02  0.3185E+03
    -14.149  0.4295E+02  0.3191E+03
    -14.135  0.4301E+02  0.3197E+03
    -14.121  0.4306E+02  0.3203E+03
    -14.107  0.4309E+02  0.3209E+03
    -14.093  0.4310E+02  0.3215E+03
    -14.079  0.4308E+02  0.3221E+03
    -14.065  0.4305E+02  0.3227E+03
    -14.052  0.4300E+02  0.3233E+03
    -14.038  0.4292E+02  0.3239E+03
    -14.024  0.4282E+02  0.3245E+03
    -14.010  0.4271E+02  0.3251E+03
    -13.996  0.4258E+02  0.3257E+03
    -13.982  0.4245E+02  0.3263E+03
    -13.968  0.4230E+02  0.3269E+03
    -13.954  0.4216E+02  0.3274E+03
    -13.940  0.4202E+02  0.3280E+03
    -13.926  0.4188E+02  0.3286E+03
    -13.912  0.4176E+02  0.3292E+03
    -13.898  0.4165E+02  0.3298E+03
    -13.884  0.4156E+02  0.3304E+03
    -13.870  0.4149E+02  0.3309E+03
    -13.856  0.4145E+02  0.3315E+03
    -13.842  0.4143E+02  0.3321E+03
    -13.828  0.4143E+02  0.3327E+03
    -13.814  0.4145E+02  0.3333E+03
    -13.800  0.4149E+02  0.3338E+03
    -13.786  0.4155E+02  0.3344E+03
    -13.772  0.4163E+02  0.3350E+03
    -13.758  0.4171E+02  0.3356E+03
    -13.744  0.4179E+02  0.3362E+03
    -13.730  0.4187E+02  0.3368E+03
    -13.716  0.4194E+02  0.3374E+03
    -13.702  0.4201E+02  0.3379E+03
    -13.688  0.4205E+02  0.3385E+03
    -13.674  0.4208E+02  0.3391E+03
    -13.660  0.4209E+02  0.3397E+03
    -13.646  0.4207E+02  0.3403E+03
    -13.632  0.4203E+02  0.3409E+03
    -13.618  0.4197E+02  0.3415E+03
    -13.604  0.4188E+02  0.3421E+03
    -13.590  0.4178E+02  0.3426E+03
    -13.576  0.4166E+02  0.3432E+03
    -13.562  0.4154E+02  0.3438E+03
    -13.548  0.4141E+02  0.3444E+03
    -13.534  0.4128E+02  0.3450E+03
    -13.520  0.4117E+02  0.3455E+03
    -13.506  0.4107E+02  0.3461E+03
    -13.492  0.4099E+02  0.3467E+03
    -13.478  0.4094E+02  0.3473E+03
    -13.464  0.4091E+02  0.3478E+03
    -13.450  0.4093E+02  0.3484E+03
    -13.436  0.4097E+02  0.3490E+03
    -13.422  0.4106E+02  0.3495E+03
    -13.408  0.4118E+02  0.3501E+03
    -13.394  0.4134E+02  0.3507E+03
    -13.380  0.4153E+02  0.3513E+03
    -13.366  0.4176E+02  0.3519E+03
    -13.352  0.4201E+02  0.3525E+03
    -13.338  0.4228E+02  0.3530E+03
    -13.324  0.4257E+02  0.3536E+03
    -13.310  0.4286E+02  0.3542E+03
    -13.296  0.4317E+02  0.3548E+03
    -13.282  0.4347E+02  0.3555E+03
    -13.268  0.4377E+02  0.3561E+03
    -13.254  0.4406E+02  0.3567E+03
    -13.240  0.4434E+02  0.3573E+03
    -13.226  0.4460E+02  0.3579E+03
    -13.212  0.4483E+02  0.3586E+03
    -13.198  0.4505E+02  0.3592E+03
    -13.184  0.4523E+02  0.3598E+03
    -13.170  0.4539E+02  0.3604E+03
    -13.156  0.4553E+02  0.3611E+03
    -13.142  0.4564E+02  0.3617E+03
    -13.128  0.4572E+02  0.3624E+03
    -13.114  0.4579E+02  0.3630E+03
    -13.100  0.4583E+02  0.3636E+03
    -13.086  0.4586E+02  0.3643E+03
    -13.072  0.4588E+02  0.3649E+03
    -13.058  0.4589E+02  0.3656E+03
    -13.044  0.4589E+02  0.3662E+03
    -13.030  0.4589E+02  0.3669E+03
    -13.016  0.4589E+02  0.3675E+03