 249 249   0   0
  0.5544415E+02  0.3049444E-08  0.2263625E-08  0.2000000E-08  0.5000000E-15
  1.000000000000000E-004
  CAR 
 unknown system                          
      3.60916923    -24.28090306 2000     -3.52714423      1.00000000
    -24.281  0.0000E+00  0.0000E+00
    -24.267  0.0000E+00  0.0000E+00
    -24.253  0.0000E+00  0.0000E+00
    -24.239  0.0000E+00  0.0000E+00
    -24.225  0.0000E+00  0.0000E+00
    -24.211  0.0000E+00  0.0000E+00
    -24.197  0.0000E+00  0.0000E+00
    -24.183  0.0000E+00  0.0000E+00
    -24.169  0.0000E+00  0.0000E+00
    -24.155  0.0000E+00  0.0000E+00
    -24.141  0.0000E+00  0.0000E+00
    -24.127  0.0000E+00  0.0000E+00
    -24.113  0.0000E+00  0.0000E+00
    -24.100  0.0000E+00  0.0000E+00
    -24.086  0.0000E+00  0.0000E+00
    -24.072  0.0000E+00  0.0000E+00
    -24.058  0.0000E+00  0.0000E+00
    -24.044  0.0000E+00  0.0000E+00
    -24.030  0.0000E+00  0.0000E+00
    -24.016  0.0000E+00  0.0000E+00
    -24.002  0.0000E+00  0.0000E+00
    -23.988  0.0000E+00  0.0000E+00
    -23.974  0.0000E+00  0.0000E+00
    -23.960  0.0000E+00  0.0000E+00
    -23.946  0.0000E+00  0.0000E+00
    -23.932  0.0000E+00  0.0000E+00
    -23.918  0.0000E+00  0.0000E+00
    -23.904  0.0000E+00  0.0000E+00
    -23.890  0.0000E+00  0.0000E+00
    -23.876  0.0000E+00  0.0000E+00
    -23.862  0.0000E+00  0.0000E+00
    -23.848  0.0000E+00  0.0000E+00
    -23.834  0.0000E+00  0.0000E+00
    -23.820  0.0000E+00  0.0000E+00
    -23.807  0.0000E+00  0.0000E+00
    -23.793  0.0000E+00  0.0000E+00
    -23.779  0.0000E+00  0.0000E+00
    -23.765  0.0000E+00  0.0000E+00
    -23.751  0.0000E+00  0.0000E+00
    -23.737  0.0000E+00  0.0000E+00
    -23.723  0.0000E+00  0.0000E+00
    -23.709  0.0000E+00  0.0000E+00
    -23.695  0.0000E+00  0.0000E+00
    -23.681  0.0000E+00  0.0000E+00
    -23.667  0.0000E+00  0.0000E+00
    -23.653  0.0000E+00  0.0000E+00
    -23.639  0.0000E+00  0.0000E+00
    -23.625  0.0000E+00  0.0000E+00
    -23.611  0.0000E+00  0.0000E+00
    -23.597  0.0000E+00  0.0000E+00
    -23.583  0.0000E+00  0.0000E+00
    -23.569  0.0000E+00  0.0000E+00
    -23.555  0.0000E+00  0.0000E+00
    -23.541  0.0000E+00  0.0000E+00
    -23.527  0.0000E+00  0.0000E+00
    -23.514  0.0000E+00  0.0000E+00
    -23.500  0.0000E+00  0.0000E+00
    -23.486  0.0000E+00  0.0000E+00
    -23.472  0.0000E+00  0.0000E+00
    -23.458  0.2652E-14  0.3701E-16
    -23.444  0.7957E-14  0.1480E-15
    -23.430  0.1061E-13  0.2961E-15
    -23.416  0.3802E-13  0.8265E-15
    -23.402  0.6896E-13  0.1789E-14
    -23.388  0.1671E-12  0.4120E-14
    -23.374  0.3422E-12  0.8894E-14
    -23.360  0.7551E-12  0.1943E-13
    -23.346  0.1601E-11  0.4177E-13
    -23.332  0.3393E-11  0.8911E-13
    -23.318  0.7110E-11  0.1883E-12
    -23.304  0.1475E-10  0.3942E-12
    -23.290  0.3032E-10  0.8171E-12
    -23.276  0.6170E-10  0.1678E-11
    -23.262  0.1244E-09  0.3413E-11
    -23.248  0.2483E-09  0.6878E-11
    -23.235  0.4910E-09  0.1373E-10
    -23.221  0.9615E-09  0.2714E-10
    -23.207  0.1865E-08  0.5316E-10
    -23.193  0.3582E-08  0.1031E-09
    -23.179  0.6815E-08  0.1982E-09
    -23.165  0.1284E-07  0.3774E-09
    -23.151  0.2397E-07  0.7118E-09
    -23.137  0.4430E-07  0.1330E-08
    -23.123  0.8109E-07  0.2461E-08
    -23.109  0.1470E-06  0.4513E-08
    -23.095  0.2640E-06  0.8196E-08
    -23.081  0.4696E-06  0.1475E-07
    -23.067  0.8272E-06  0.2629E-07
    -23.053  0.1443E-05  0.4643E-07
    -23.039  0.2494E-05  0.8122E-07
    -23.025  0.4268E-05  0.1408E-06
    -23.011  0.7235E-05  0.2417E-06
    -22.997  0.1215E-04  0.4112E-06
    -22.983  0.2020E-04  0.6930E-06
    -22.969  0.3326E-04  0.1157E-05
    -22.955  0.5426E-04  0.1914E-05
    -22.942  0.8767E-04  0.3137E-05
    -22.928  0.1403E-03  0.5095E-05
    -22.914  0.2224E-03  0.8197E-05
    -22.900  0.3491E-03  0.1307E-04
    -22.886  0.5427E-03  0.2064E-04
    -22.872  0.8358E-03  0.3230E-04
    -22.858  0.1275E-02  0.5009E-04
    -22.844  0.1926E-02  0.7697E-04
    -22.830  0.2883E-02  0.1172E-03
    -22.816  0.4273E-02  0.1768E-03
    -22.802  0.6274E-02  0.2643E-03
    -22.788  0.9124E-02  0.3916E-03
    -22.774  0.1314E-01  0.5750E-03
    -22.760  0.1875E-01  0.8366E-03
    -22.746  0.2650E-01  0.1206E-02
    -22.732  0.3710E-01  0.1724E-02
    -22.718  0.5145E-01  0.2442E-02
    -22.704  0.7068E-01  0.3428E-02
    -22.690  0.9617E-01  0.4770E-02
    -22.676  0.1296E+00  0.6578E-02
    -22.662  0.1731E+00  0.8994E-02
    -22.649  0.2290E+00  0.1219E-01
    -22.635  0.3001E+00  0.1638E-01
    -22.621  0.3896E+00  0.2181E-01
    -22.607  0.5011E+00  0.2880E-01
    -22.593  0.6386E+00  0.3771E-01
    -22.579  0.8062E+00  0.4896E-01
    -22.565  0.1009E+01  0.6303E-01
    -22.551  0.1250E+01  0.8048E-01
    -22.537  0.1536E+01  0.1019E+00
    -22.523  0.1870E+01  0.1280E+00
    -22.509  0.2255E+01  0.1595E+00
    -22.495  0.2697E+01  0.1971E+00
    -22.481  0.3196E+01  0.2417E+00
    -22.467  0.3755E+01  0.2941E+00
    -22.453  0.4374E+01  0.3551E+00
    -22.439  0.5051E+01  0.4256E+00
    -22.425  0.5785E+01  0.5063E+00
    -22.411  0.6570E+01  0.5979E+00
    -22.397  0.7402E+01  0.7012E+00
    -22.383  0.8274E+01  0.8166E+00
    -22.369  0.9177E+01  0.9447E+00
    -22.356  0.1010E+02  0.1086E+01
    -22.342  0.1104E+02  0.1240E+01
    -22.328  0.1199E+02  0.1407E+01
    -22.314  0.1292E+02  0.1587E+01
    -22.300  0.1384E+02  0.1780E+01
    -22.286  0.1474E+02  0.1986E+01
    -22.272  0.1561E+02  0.2204E+01
    -22.258  0.1645E+02  0.2433E+01
    -22.244  0.1724E+02  0.2674E+01
    -22.230  0.1800E+02  0.2925E+01
    -22.216  0.1872E+02  0.3186E+01
    -22.202  0.1939E+02  0.3457E+01
    -22.188  0.2004E+02  0.3736E+01
    -22.174  0.2065E+02  0.4025E+01
    -22.160  0.2124E+02  0.4321E+01
    -22.146  0.2181E+02  0.4625E+01
    -22.132  0.2237E+02  0.4937E+01
    -22.118  0.2293E+02  0.5257E+01
    -22.104  0.2348E+02  0.5585E+01
    -22.090  0.2403E+02  0.5920E+01
    -22.076  0.2460E+02  0.6263E+01
    -22.063  0.2517E+02  0.6615E+01
    -22.049  0.2576E+02  0.6974E+01
    -22.035  0.2635E+02  0.7342E+01
    -22.021  0.2696E+02  0.7718E+01
    -22.007  0.2758E+02  0.8103E+01
    -21.993  0.2820E+02  0.8496E+01
    -21.979  0.2882E+02  0.8898E+01
    -21.965  0.2945E+02  0.9309E+01
    -21.951  0.3006E+02  0.9728E+01
    -21.937  0.3067E+02  0.1016E+02
    -21.923  0.3126E+02  0.1059E+02
    -21.909  0.3184E+02  0.1104E+02
    -21.895  0.3240E+02  0.1149E+02
    -21.881  0.3293E+02  0.1195E+02
    -21.867  0.3344E+02  0.1241E+02
    -21.853  0.3393E+02  0.1289E+02
    -21.839  0.3439E+02  0.1337E+02
    -21.825  0.3483E+02  0.1385E+02
    -21.811  0.3524E+02  0.1435E+02
    -21.797  0.3564E+02  0.1484E+02
    -21.783  0.3601E+02  0.1535E+02
    -21.770  0.3637E+02  0.1585E+02
    -21.756  0.3672E+02  0.1637E+02
    -21.742  0.3705E+02  0.1688E+02
    -21.728  0.3738E+02  0.1740E+02
    -21.714  0.3770E+02  0.1793E+02
    -21.700  0.3802E+02  0.1846E+02
    -21.686  0.3834E+02  0.1899E+02
    -21.672  0.3866E+02  0.1953E+02
    -21.658  0.3897E+02  0.2008E+02
    -21.644  0.3929E+02  0.2063E+02
    -21.630  0.3961E+02  0.2118E+02
    -21.616  0.3993E+02  0.2174E+02
    -21.602  0.4024E+02  0.2230E+02
    -21.588  0.4055E+02  0.2286E+02
    -21.574  0.4084E+02  0.2343E+02
    -21.560  0.4113E+02  0.2401E+02
    -21.546  0.4139E+02  0.2458E+02
    -21.532  0.4162E+02  0.2516E+02
    -21.518  0.4183E+02  0.2575E+02
    -21.504  0.4200E+02  0.2633E+02
    -21.491  0.4213E+02  0.2692E+02
    -21.477  0.4221E+02  0.2751E+02
    -21.463  0.4224E+02  0.2810E+02
    -21.449  0.4222E+02  0.2869E+02
    -21.435  0.4214E+02  0.2928E+02
    -21.421  0.4202E+02  0.2986E+02
    -21.407  0.4184E+02  0.3045E+02
    -21.393  0.4160E+02  0.3103E+02
    -21.379  0.4133E+02  0.3160E+02
    -21.365  0.4101E+02  0.3218E+02
    -21.351  0.4065E+02  0.3274E+02
    -21.337  0.4027E+02  0.3331E+02
    -21.323  0.3986E+02  0.3386E+02
    -21.309  0.3944E+02  0.3441E+02
    -21.295  0.3901E+02  0.3496E+02
    -21.281  0.3858E+02  0.3549E+02
    -21.267  0.3815E+02  0.3603E+02
    -21.253  0.3773E+02  0.3655E+02
    -21.239  0.3732E+02  0.3707E+02
    -21.225  0.3692E+02  0.3759E+02
    -21.211  0.3654E+02  0.3810E+02
    -21.198  0.3618E+02  0.3860E+02
    -21.184  0.3584E+02  0.3910E+02
    -21.170  0.3551E+02  0.3960E+02
    -21.156  0.3520E+02  0.4009E+02
    -21.142  0.3490E+02  0.4058E+02
    -21.128  0.3462E+02  0.4106E+02
    -21.114  0.3435E+02  0.4154E+02
    -21.100  0.3410E+02  0.4202E+02
    -21.086  0.3386E+02  0.4249E+02
    -21.072  0.3364E+02  0.4296E+02
    -21.058  0.3344E+02  0.4342E+02
    -21.044  0.3326E+02  0.4389E+02
    -21.030  0.3311E+02  0.4435E+02
    -21.016  0.3299E+02  0.4481E+02
    -21.002  0.3291E+02  0.4527E+02
    -20.988  0.3287E+02  0.4573E+02
    -20.974  0.3288E+02  0.4619E+02
    -20.960  0.3293E+02  0.4665E+02
    -20.946  0.3304E+02  0.4711E+02
    -20.932  0.3320E+02  0.4757E+02
    -20.918  0.3341E+02  0.4804E+02
    -20.905  0.3368E+02  0.4851E+02
    -20.891  0.3400E+02  0.4898E+02
    -20.877  0.3436E+02  0.4946E+02
    -20.863  0.3476E+02  0.4994E+02
    -20.849  0.3520E+02  0.5044E+02
    -20.835  0.3567E+02  0.5093E+02
    -20.821  0.3615E+02  0.5144E+02
    -20.807  0.3665E+02  0.5195E+02
    -20.793  0.3715E+02  0.5247E+02
    -20.779  0.3764E+02  0.5299E+02
    -20.765  0.3812E+02  0.5352E+02
    -20.751  0.3857E+02  0.5406E+02
    -20.737  0.3900E+02  0.5461E+02
    -20.723  0.3939E+02  0.5516E+02
    -20.709  0.3974E+02  0.5571E+02
    -20.695  0.4005E+02  0.5627E+02
    -20.681  0.4031E+02  0.5683E+02
    -20.667  0.4051E+02  0.5740E+02
    -20.653  0.4067E+02  0.5796E+02
    -20.639  0.4077E+02  0.5853E+02
    -20.625  0.4082E+02  0.5910E+02
    -20.612  0.4082E+02  0.5967E+02
    -20.598  0.4077E+02  0.6024E+02
    -20.584  0.4068E+02  0.6081E+02
    -20.570  0.4055E+02  0.6137E+02
    -20.556  0.4038E+02  0.6194E+02
    -20.542  0.4020E+02  0.6250E+02
    -20.528  0.3999E+02  0.6306E+02
    -20.514  0.3977E+02  0.6361E+02
    -20.500  0.3954E+02  0.6416E+02
    -20.486  0.3932E+02  0.6471E+02
    -20.472  0.3912E+02  0.6526E+02
    -20.458  0.3893E+02  0.6580E+02
    -20.444  0.3876E+02  0.6634E+02
    -20.430  0.3863E+02  0.6688E+02
    -20.416  0.3854E+02  0.6742E+02
    -20.402  0.3849E+02  0.6795E+02
    -20.388  0.3847E+02  0.6849E+02
    -20.374  0.3851E+02  0.6903E+02
    -20.360  0.3858E+02  0.6957E+02
    -20.346  0.3870E+02  0.7011E+02
    -20.332  0.3886E+02  0.7065E+02
    -20.319  0.3905E+02  0.7119E+02
    -20.305  0.3926E+02  0.7174E+02
    -20.291  0.3950E+02  0.7229E+02
    -20.277  0.3975E+02  0.7285E+02
    -20.263  0.4000E+02  0.7341E+02
    -20.249  0.4025E+02  0.7397E+02
    -20.235  0.4049E+02  0.7453E+02
    -20.221  0.4072E+02  0.7510E+02
    -20.207  0.4093E+02  0.7567E+02
    -20.193  0.4111E+02  0.7625E+02
    -20.179  0.4127E+02  0.7682E+02
    -20.165  0.4140E+02  0.7740E+02
    -20.151  0.4150E+02  0.7798E+02
    -20.137  0.4158E+02  0.7856E+02
    -20.123  0.4163E+02  0.7914E+02
    -20.109  0.4167E+02  0.7972E+02
    -20.095  0.4168E+02  0.8030E+02
    -20.081  0.4169E+02  0.8088E+02
    -20.067  0.4169E+02  0.8146E+02
    -20.053  0.4169E+02  0.8205E+02
    -20.039  0.4169E+02  0.8263E+02
    -20.026  0.4170E+02  0.8321E+02
    -20.012  0.4171E+02  0.8379E+02
    -19.998  0.4173E+02  0.8437E+02
    -19.984  0.4176E+02  0.8496E+02
    -19.970  0.4179E+02  0.8554E+02
    -19.956  0.4183E+02  0.8612E+02
    -19.942  0.4188E+02  0.8671E+02
    -19.928  0.4192E+02  0.8729E+02
    -19.914  0.4196E+02  0.8788E+02
    -19.900  0.4200E+02  0.8846E+02
    -19.886  0.4204E+02  0.8905E+02
    -19.872  0.4206E+02  0.8964E+02
    -19.858  0.4208E+02  0.9022E+02
    -19.844  0.4208E+02  0.9081E+02
    -19.830  0.4208E+02  0.9140E+02
    -19.816  0.4207E+02  0.9199E+02
    -19.802  0.4204E+02  0.9257E+02
    -19.788  0.4201E+02  0.9316E+02
    -19.774  0.4197E+02  0.9374E+02
    -19.760  0.4192E+02  0.9433E+02
    -19.746  0.4187E+02  0.9491E+02
    -19.733  0.4181E+02  0.9550E+02
    -19.719  0.4176E+02  0.9608E+02
    -19.705  0.4170E+02  0.9666E+02
    -19.691  0.4165E+02  0.9724E+02
    -19.677  0.4160E+02  0.9782E+02
    -19.663  0.4155E+02  0.9840E+02
    -19.649  0.4152E+02  0.9898E+02
    -19.635  0.4148E+02  0.9956E+02
    -19.621  0.4146E+02  0.1001E+03
    -19.607  0.4145E+02  0.1007E+03
    -19.593  0.4145E+02  0.1013E+03
    -19.579  0.4146E+02  0.1019E+03
    -19.565  0.4148E+02  0.1025E+03
    -19.551  0.4150E+02  0.1030E+03
    -19.537  0.4154E+02  0.1036E+03
    -19.523  0.4159E+02  0.1042E+03
    -19.509  0.4164E+02  0.1048E+03
    -19.495  0.4169E+02  0.1054E+03
    -19.481  0.4174E+02  0.1059E+03
    -19.467  0.4178E+02  0.1065E+03
    -19.454  0.4182E+02  0.1071E+03
    -19.440  0.4186E+02  0.1077E+03
    -19.426  0.4187E+02  0.1083E+03
    -19.412  0.4188E+02  0.1089E+03
    -19.398  0.4187E+02  0.1094E+03
    -19.384  0.4184E+02  0.1100E+03
    -19.370  0.4180E+02  0.1106E+03
    -19.356  0.4174E+02  0.1112E+03
    -19.342  0.4167E+02  0.1118E+03
    -19.328  0.4158E+02  0.1123E+03
    -19.314  0.4149E+02  0.1129E+03
    -19.300  0.4140E+02  0.1135E+03
    -19.286  0.4131E+02  0.1141E+03
    -19.272  0.4122E+02  0.1147E+03
    -19.258  0.4114E+02  0.1152E+03
    -19.244  0.4107E+02  0.1158E+03
    -19.230  0.4102E+02  0.1164E+03
    -19.216  0.4099E+02  0.1169E+03
    -19.202  0.4099E+02  0.1175E+03
    -19.188  0.4101E+02  0.1181E+03
    -19.174  0.4106E+02  0.1187E+03
    -19.161  0.4114E+02  0.1192E+03
    -19.147  0.4125E+02  0.1198E+03
    -19.133  0.4139E+02  0.1204E+03
    -19.119  0.4155E+02  0.1210E+03
    -19.105  0.4174E+02  0.1216E+03
    -19.091  0.4194E+02  0.1221E+03
    -19.077  0.4216E+02  0.1227E+03
    -19.063  0.4239E+02  0.1233E+03
    -19.049  0.4263E+02  0.1239E+03
    -19.035  0.4286E+02  0.1245E+03
    -19.021  0.4308E+02  0.1251E+03
    -19.007  0.4329E+02  0.1257E+03
    -18.993  0.4348E+02  0.1263E+03
    -18.979  0.4363E+02  0.1269E+03
    -18.965  0.4376E+02  0.1275E+03
    -18.951  0.4384E+02  0.1282E+03
    -18.937  0.4389E+02  0.1288E+03
    -18.923  0.4388E+02  0.1294E+03
    -18.909  0.4384E+02  0.1300E+03
    -18.895  0.4374E+02  0.1306E+03
    -18.881  0.4360E+02  0.1312E+03
    -18.868  0.4342E+02  0.1318E+03
    -18.854  0.4321E+02  0.1324E+03
    -18.840  0.4296E+02  0.1330E+03
    -18.826  0.4269E+02  0.1336E+03
    -18.812  0.4241E+02  0.1342E+03
    -18.798  0.4212E+02  0.1348E+03
    -18.784  0.4184E+02  0.1354E+03
    -18.770  0.4157E+02  0.1360E+03
    -18.756  0.4132E+02  0.1365E+03
    -18.742  0.4111E+02  0.1371E+03
    -18.728  0.4094E+02  0.1377E+03
    -18.714  0.4082E+02  0.1382E+03
    -18.700  0.4075E+02  0.1388E+03
    -18.686  0.4075E+02  0.1394E+03
    -18.672  0.4080E+02  0.1400E+03
    -18.658  0.4091E+02  0.1405E+03
    -18.644  0.4109E+02  0.1411E+03
    -18.630  0.4131E+02  0.1417E+03
    -18.616  0.4159E+02  0.1423E+03
    -18.602  0.4192E+02  0.1428E+03
    -18.588  0.4227E+02  0.1434E+03
    -18.575  0.4265E+02  0.1440E+03
    -18.561  0.4305E+02  0.1446E+03
    -18.547  0.4344E+02  0.1452E+03
    -18.533  0.4383E+02  0.1458E+03
    -18.519  0.4420E+02  0.1465E+03
    -18.505  0.4454E+02  0.1471E+03
    -18.491  0.4484E+02  0.1477E+03
    -18.477  0.4509E+02  0.1483E+03
    -18.463  0.4530E+02  0.1490E+03
    -18.449  0.4545E+02  0.1496E+03
    -18.435  0.4555E+02  0.1502E+03
    -18.421  0.4560E+02  0.1509E+03
    -18.407  0.4559E+02  0.1515E+03
    -18.393  0.4555E+02  0.1521E+03
    -18.379  0.4546E+02  0.1528E+03
    -18.365  0.4534E+02  0.1534E+03
    -18.351  0.4519E+02  0.1540E+03
    -18.337  0.4503E+02  0.1547E+03
    -18.323  0.4487E+02  0.1553E+03
    -18.309  0.4470E+02  0.1559E+03
    -18.295  0.4454E+02  0.1565E+03
    -18.282  0.4440E+02  0.1572E+03
    -18.268  0.4427E+02  0.1578E+03
    -18.254  0.4417E+02  0.1584E+03
    -18.240  0.4410E+02  0.1590E+03
    -18.226  0.4405E+02  0.1596E+03
    -18.212  0.4403E+02  0.1602E+03
    -18.198  0.4404E+02  0.1609E+03
    -18.184  0.4409E+02  0.1615E+03
    -18.170  0.4416E+02  0.1621E+03
    -18.156  0.4426E+02  0.1627E+03
    -18.142  0.4438E+02  0.1633E+03
    -18.128  0.4453E+02  0.1639E+03
    -18.114  0.4471E+02  0.1646E+03
    -18.100  0.4491E+02  0.1652E+03
    -18.086  0.4512E+02  0.1658E+03
    -18.072  0.4536E+02  0.1665E+03
    -18.058  0.4561E+02  0.1671E+03
    -18.044  0.4588E+02  0.1677E+03
    -18.030  0.4615E+02  0.1684E+03
    -18.016  0.4644E+02  0.1690E+03
    -18.002  0.4674E+02  0.1697E+03
    -17.989  0.4703E+02  0.1703E+03
    -17.975  0.4733E+02  0.1710E+03
    -17.961  0.4763E+02  0.1717E+03
    -17.947  0.4792E+02  0.1723E+03
    -17.933  0.4820E+02  0.1730E+03
    -17.919  0.4847E+02  0.1737E+03
    -17.905  0.4873E+02  0.1744E+03
    -17.891  0.4897E+02  0.1750E+03
    -17.877  0.4920E+02  0.1757E+03
    -17.863  0.4941E+02  0.1764E+03
    -17.849  0.4959E+02  0.1771E+03
    -17.835  0.4976E+02  0.1778E+03
    -17.821  0.4990E+02  0.1785E+03
    -17.807  0.5002E+02  0.1792E+03
    -17.793  0.5011E+02  0.1799E+03
    -17.779  0.5018E+02  0.1806E+03
    -17.765  0.5022E+02  0.1813E+03
    -17.751  0.5023E+02  0.1820E+03
    -17.737  0.5022E+02  0.1827E+03
    -17.723  0.5019E+02  0.1834E+03
    -17.710  0.5013E+02  0.1841E+03
    -17.696  0.5005E+02  0.1848E+03
    -17.682  0.4994E+02  0.1855E+03
    -17.668  0.4982E+02  0.1862E+03
    -17.654  0.4968E+02  0.1869E+03
    -17.640  0.4953E+02  0.1876E+03
    -17.626  0.4936E+02  0.1883E+03
    -17.612  0.4919E+02  0.1889E+03
    -17.598  0.4902E+02  0.1896E+03
    -17.584  0.4884E+02  0.1903E+03
    -17.570  0.4867E+02  0.1910E+03
    -17.556  0.4850E+02  0.1917E+03
    -17.542  0.4834E+02  0.1923E+03
    -17.528  0.4819E+02  0.1930E+03
    -17.514  0.4805E+02  0.1937E+03
    -17.500  0.4793E+02  0.1944E+03
    -17.486  0.4782E+02  0.1950E+03
    -17.472  0.4773E+02  0.1957E+03
    -17.458  0.4764E+02  0.1963E+03
    -17.444  0.4757E+02  0.1970E+03
    -17.430  0.4750E+02  0.1977E+03
    -17.417  0.4744E+02  0.1983E+03
    -17.403  0.4737E+02  0.1990E+03
    -17.389  0.4730E+02  0.1997E+03
    -17.375  0.4721E+02  0.2003E+03
    -17.361  0.4711E+02  0.2010E+03
    -17.347  0.4698E+02  0.2016E+03
    -17.333  0.4683E+02  0.2023E+03
    -17.319  0.4665E+02  0.2029E+03
    -17.305  0.4643E+02  0.2036E+03
    -17.291  0.4618E+02  0.2042E+03
    -17.277  0.4589E+02  0.2049E+03
    -17.263  0.4555E+02  0.2055E+03
    -17.249  0.4517E+02  0.2061E+03
    -17.235  0.4476E+02  0.2068E+03
    -17.221  0.4430E+02  0.2074E+03
    -17.207  0.4381E+02  0.2080E+03
    -17.193  0.4329E+02  0.2086E+03
    -17.179  0.4274E+02  0.2092E+03
    -17.165  0.4217E+02  0.2098E+03
    -17.151  0.4158E+02  0.2104E+03
    -17.137  0.4097E+02  0.2109E+03
    -17.124  0.4035E+02  0.2115E+03
    -17.110  0.3973E+02  0.2120E+03
    -17.096  0.3910E+02  0.2126E+03
    -17.082  0.3848E+02  0.2131E+03
    -17.068  0.3786E+02  0.2137E+03
    -17.054  0.3724E+02  0.2142E+03
    -17.040  0.3664E+02  0.2147E+03
    -17.026  0.3604E+02  0.2152E+03
    -17.012  0.3545E+02  0.2157E+03
    -16.998  0.3487E+02  0.2162E+03
    -16.984  0.3430E+02  0.2166E+03
    -16.970  0.3374E+02  0.2171E+03
    -16.956  0.3320E+02  0.2176E+03
    -16.942  0.3266E+02  0.2180E+03
    -16.928  0.3213E+02  0.2185E+03
    -16.914  0.3161E+02  0.2189E+03
    -16.900  0.3111E+02  0.2194E+03
    -16.886  0.3061E+02  0.2198E+03
    -16.872  0.3012E+02  0.2202E+03
    -16.858  0.2965E+02  0.2206E+03
    -16.844  0.2919E+02  0.2210E+03
    -16.831  0.2875E+02  0.2214E+03
    -16.817  0.2833E+02  0.2218E+03
    -16.803  0.2793E+02  0.2222E+03
    -16.789  0.2755E+02  0.2226E+03
    -16.775  0.2719E+02  0.2230E+03
    -16.761  0.2687E+02  0.2234E+03
    -16.747  0.2657E+02  0.2237E+03
    -16.733  0.2630E+02  0.2241E+03
    -16.719  0.2607E+02  0.2245E+03
    -16.705  0.2588E+02  0.2248E+03
    -16.691  0.2571E+02  0.2252E+03
    -16.677  0.2558E+02  0.2255E+03
    -16.663  0.2548E+02  0.2259E+03
    -16.649  0.2542E+02  0.2262E+03
    -16.635  0.2537E+02  0.2266E+03
    -16.621  0.2535E+02  0.2269E+03
    -16.607  0.2535E+02  0.2273E+03
    -16.593  0.2535E+02  0.2277E+03
    -16.579  0.2537E+02  0.2280E+03
    -16.565  0.2539E+02  0.2284E+03
    -16.551  0.2541E+02  0.2287E+03
    -16.538  0.2543E+02  0.2291E+03
    -16.524  0.2544E+02  0.2294E+03
    -16.510  0.2545E+02  0.2298E+03
    -16.496  0.2545E+02  0.2301E+03
    -16.482  0.2545E+02  0.2305E+03
    -16.468  0.2545E+02  0.2308E+03
    -16.454  0.2546E+02  0.2312E+03
    -16.440  0.2549E+02  0.2316E+03
    -16.426  0.2553E+02  0.2319E+03
    -16.412  0.2561E+02  0.2323E+03
    -16.398  0.2571E+02  0.2326E+03
    -16.384  0.2587E+02  0.2330E+03
    -16.370  0.2607E+02  0.2334E+03
    -16.356  0.2633E+02  0.2337E+03
    -16.342  0.2665E+02  0.2341E+03
    -16.328  0.2704E+02  0.2345E+03
    -16.314  0.2749E+02  0.2349E+03
    -16.300  0.2801E+02  0.2352E+03
    -16.286  0.2860E+02  0.2356E+03
    -16.272  0.2925E+02  0.2361E+03
    -16.258  0.2995E+02  0.2365E+03
    -16.245  0.3071E+02  0.2369E+03
    -16.231  0.3151E+02  0.2373E+03
    -16.217  0.3235E+02  0.2378E+03
    -16.203  0.3321E+02  0.2383E+03
    -16.189  0.3409E+02  0.2387E+03
    -16.175  0.3497E+02  0.2392E+03
    -16.161  0.3586E+02  0.2397E+03
    -16.147  0.3673E+02  0.2402E+03
    -16.133  0.3757E+02  0.2408E+03
    -16.119  0.3839E+02  0.2413E+03
    -16.105  0.3916E+02  0.2418E+03
    -16.091  0.3989E+02  0.2424E+03
    -16.077  0.4056E+02  0.2430E+03
    -16.063  0.4117E+02  0.2435E+03
    -16.049  0.4171E+02  0.2441E+03
    -16.035  0.4219E+02  0.2447E+03
    -16.021  0.4259E+02  0.2453E+03
    -16.007  0.4291E+02  0.2459E+03
    -15.993  0.4317E+02  0.2465E+03
    -15.979  0.4335E+02  0.2471E+03
    -15.966  0.4346E+02  0.2477E+03
    -15.952  0.4351E+02  0.2483E+03
    -15.938  0.4350E+02  0.2489E+03
    -15.924  0.4344E+02  0.2495E+03
    -15.910  0.4334E+02  0.2501E+03
    -15.896  0.4320E+02  0.2507E+03
    -15.882  0.4303E+02  0.2513E+03
    -15.868  0.4286E+02  0.2519E+03
    -15.854  0.4267E+02  0.2525E+03
    -15.840  0.4250E+02  0.2531E+03
    -15.826  0.4233E+02  0.2537E+03
    -15.812  0.4219E+02  0.2543E+03
    -15.798  0.4209E+02  0.2549E+03
    -15.784  0.4202E+02  0.2555E+03
    -15.770  0.4198E+02  0.2561E+03
    -15.756  0.4200E+02  0.2566E+03
    -15.742  0.4206E+02  0.2572E+03
    -15.728  0.4216E+02  0.2578E+03
    -15.714  0.4230E+02  0.2584E+03
    -15.700  0.4248E+02  0.2590E+03
    -15.686  0.4270E+02  0.2596E+03
    -15.673  0.4293E+02  0.2602E+03
    -15.659  0.4319E+02  0.2608E+03
    -15.645  0.4346E+02  0.2614E+03
    -15.631  0.4373E+02  0.2620E+03
    -15.617  0.4399E+02  0.2626E+03
    -15.603  0.4424E+02  0.2633E+03
    -15.589  0.4448E+02  0.2639E+03
    -15.575  0.4469E+02  0.2645E+03
    -15.561  0.4488E+02  0.2651E+03
    -15.547  0.4503E+02  0.2658E+03
    -15.533  0.4516E+02  0.2664E+03
    -15.519  0.4527E+02  0.2670E+03
    -15.505  0.4534E+02  0.2676E+03
    -15.491  0.4540E+02  0.2683E+03
    -15.477  0.4545E+02  0.2689E+03
    -15.463  0.4548E+02  0.2695E+03
    -15.449  0.4551E+02  0.2702E+03
    -15.435  0.4554E+02  0.2708E+03
    -15.421  0.4558E+02  0.2715E+03
    -15.407  0.4563E+02  0.2721E+03
    -15.393  0.4571E+02  0.2727E+03
    -15.380  0.4580E+02  0.2734E+03
    -15.366  0.4591E+02  0.2740E+03
    -15.352  0.4605E+02  0.2747E+03
    -15.338  0.4621E+02  0.2753E+03
    -15.324  0.4639E+02  0.2759E+03
    -15.310  0.4658E+02  0.2766E+03
    -15.296  0.4679E+02  0.2772E+03
    -15.282  0.4699E+02  0.2779E+03
    -15.268  0.4720E+02  0.2786E+03
    -15.254  0.4739E+02  0.2792E+03
    -15.240  0.4757E+02  0.2799E+03
    -15.226  0.4773E+02  0.2805E+03
    -15.212  0.4786E+02  0.2812E+03
    -15.198  0.4795E+02  0.2819E+03
    -15.184  0.4801E+02  0.2826E+03
    -15.170  0.4804E+02  0.2832E+03
    -15.156  0.4803E+02  0.2839E+03
    -15.142  0.4798E+02  0.2846E+03
    -15.128  0.4790E+02  0.2852E+03
    -15.114  0.4779E+02  0.2859E+03
    -15.100  0.4765E+02  0.2866E+03
    -15.087  0.4750E+02  0.2872E+03
    -15.073  0.4733E+02  0.2879E+03
    -15.059  0.4715E+02  0.2885E+03
    -15.045  0.4697E+02  0.2892E+03
    -15.031  0.4679E+02  0.2899E+03
    -15.017  0.4662E+02  0.2905E+03
    -15.003  0.4646E+02  0.2912E+03
    -14.989  0.4631E+02  0.2918E+03
    -14.975  0.4617E+02  0.2924E+03
    -14.961  0.4605E+02  0.2931E+03
    -14.947  0.4593E+02  0.2937E+03
    -14.933  0.4583E+02  0.2944E+03
    -14.919  0.4574E+02  0.2950E+03
    -14.905  0.4565E+02  0.2956E+03
    -14.891  0.4557E+02  0.2963E+03
    -14.877  0.4549E+02  0.2969E+03
    -14.863  0.4541E+02  0.2975E+03
    -14.849  0.4533E+02  0.2982E+03
    -14.835  0.4524E+02  0.2988E+03
    -14.821  0.4515E+02  0.2994E+03
    -14.807  0.4505E+02  0.3001E+03
    -14.794  0.4494E+02  0.3007E+03
    -14.780  0.4484E+02  0.3013E+03
    -14.766  0.4472E+02  0.3019E+03
    -14.752  0.4461E+02  0.3026E+03
    -14.738  0.4450E+02  0.3032E+03
    -14.724  0.4438E+02  0.3038E+03
    -14.710  0.4428E+02  0.3044E+03
    -14.696  0.4418E+02  0.3050E+03
    -14.682  0.4409E+02  0.3057E+03
    -14.668  0.4401E+02  0.3063E+03
    -14.654  0.4394E+02  0.3069E+03
    -14.640  0.4389E+02  0.3075E+03
    -14.626  0.4386E+02  0.3081E+03
    -14.612  0.4385E+02  0.3087E+03
    -14.598  0.4386E+02  0.3093E+03
    -14.584  0.4389E+02  0.3099E+03
    -14.570  0.4394E+02  0.3106E+03
    -14.556  0.4401E+02  0.3112E+03
    -14.542  0.4410E+02  0.3118E+03
    -14.528  0.4421E+02  0.3124E+03
    -14.514  0.4434E+02  0.3130E+03
    -14.501  0.4448E+02  0.3136E+03
    -14.487  0.4463E+02  0.3143E+03
    -14.473  0.4478E+02  0.3149E+03
    -14.459  0.4493E+02  0.3155E+03
    -14.445  0.4508E+02  0.3161E+03
    -14.431  0.4522E+02  0.3168E+03
    -14.417  0.4534E+02  0.3174E+03
    -14.403  0.4545E+02  0.3180E+03
    -14.389  0.4553E+02  0.3187E+03
    -14.375  0.4558E+02  0.3193E+03
    -14.361  0.4561E+02  0.3200E+03
    -14.347  0.4561E+02  0.3206E+03
    -14.333  0.4557E+02  0.3212E+03
    -14.319  0.4550E+02  0.3219E+03
    -14.305  0.4540E+02  0.3225E+03
    -14.291  0.4526E+02  0.3231E+03
    -14.277  0.4511E+02  0.3238E+03
    -14.263  0.4492E+02  0.3244E+03
    -14.249  0.4472E+02  0.3250E+03
    -14.235  0.4449E+02  0.3256E+03
    -14.222  0.4426E+02  0.3262E+03
    -14.208  0.4401E+02  0.3269E+03
    -14.194  0.4376E+02  0.3275E+03
    -14.180  0.4351E+02  0.3281E+03
    -14.166  0.4326E+02  0.3287E+03
    -14.152  0.4302E+02  0.3293E+03
    -14.138  0.4278E+02  0.3299E+03
    -14.124  0.4256E+02  0.3305E+03
    -14.110  0.4235E+02  0.3311E+03
    -14.096  0.4215E+02  0.3316E+03
    -14.082  0.4196E+02  0.3322E+03
    -14.068  0.4180E+02  0.3328E+03
    -14.054  0.4165E+02  0.3334E+03
    -14.040  0.4151E+02  0.3340E+03
    -14.026  0.4139E+02  0.3346E+03
    -14.012  0.4128E+02  0.3351E+03
    -13.998  0.4119E+02  0.3357E+03
    -13.984  0.4110E+02  0.3363E+03
    -13.970  0.4103E+02  0.3368E+03
    -13.956  0.4097E+02  0.3374E+03
    -13.942  0.4092E+02  0.3380E+03
    -13.929  0.4087E+02  0.3386E+03
    -13.915  0.4083E+02  0.3391E+03
    -13.901  0.4080E+02  0.3397E+03
    -13.887  0.4077E+02  0.3403E+03
    -13.873  0.4074E+02  0.3408E+03
    -13.859  0.4072E+02  0.3414E+03
    -13.845  0.4069E+02  0.3420E+03
    -13.831  0.4067E+02  0.3425E+03
    -13.817  0.4065E+02  0.3431E+03
    -13.803  0.4062E+02  0.3437E+03
    -13.789  0.4060E+02  0.3442E+03
    -13.775  0.4057E+02  0.3448E+03
    -13.761  0.4055E+02  0.3454E+03
    -13.747  0.4052E+02  0.3459E+03
    -13.733  0.4050E+02  0.3465E+03
    -13.719  0.4048E+02  0.3471E+03
    -13.705  0.4046E+02  0.3476E+03
    -13.691  0.4045E+02  0.3482E+03
    -13.677  0.4044E+02  0.3488E+03
    -13.663  0.4044E+02  0.3493E+03
    -13.649  0.4045E+02  0.3499E+03
    -13.636  0.4046E+02  0.3505E+03
    -13.622  0.4048E+02  0.3510E+03
    -13.608  0.4052E+02  0.3516E+03
    -13.594  0.4056E+02  0.3521E+03
    -13.580  0.4060E+02  0.3527E+03
    -13.566  0.4065E+02  0.3533E+03
    -13.552  0.4071E+02  0.3539E+03
    -13.538  0.4077E+02  0.3544E+03
    -13.524  0.4082E+02  0.3550E+03
    -13.510  0.4087E+02  0.3556E+03
    -13.496  0.4092E+02  0.3561E+03
    -13.482  0.4095E+02  0.3567E+03
    -13.468  0.4097E+02  0.3573E+03
    -13.454  0.4097E+02  0.3578E+03
    -13.440  0.4096E+02  0.3584E+03
    -13.426  0.4093E+02  0.3590E+03
    -13.412  0.4088E+02  0.3596E+03
    -13.398  0.4081E+02  0.3601E+03
    -13.384  0.4072E+02  0.3607E+03
    -13.370  0.4061E+02  0.3613E+03
    -13.356  0.4049E+02  0.3618E+03
    -13.343  0.4036E+02  0.3624E+03
    -13.329  0.4022E+02  0.3630E+03
    -13.315  0.4007E+02  0.3635E+03
    -13.301  0.3993E+02  0.3641E+03
    -13.287  0.3980E+02  0.3646E+03
    -13.273  0.3967E+02  0.3652E+03
    -13.259  0.3956E+02  0.3657E+03
    -13.245  0.3946E+02  0.3663E+03
    -13.231  0.3939E+02  0.3668E+03
    -13.217  0.3934E+02  0.3674E+03
    -13.203  0.3931E+02  0.3679E+03
    -13.189  0.3931E+02  0.3685E+03
    -13.175  0.3934E+02  0.3690E+03
    -13.161  0.3939E+02  0.3696E+03
    -13.147  0.3948E+02  0.3701E+03
    -13.133  0.3958E+02  0.3707E+03
    -13.119  0.3972E+02  0.3712E+03
    -13.105  0.3988E+02  0.3718E+03
    -13.091  0.4006E+02  0.3723E+03
    -13.077  0.4026E+02  0.3729E+03
    -13.063  0.4048E+02  0.3735E+03
    -13.050  0.4072E+02  0.3740E+03
    -13.036  0.4096E+02  0.3746E+03
    -13.022  0.4122E+02  0.3752E+03
    -13.008  0.4149E+02  0.3758E+03
    -12.994  0.4175E+02  0.3763E+03
    -12.980  0.4202E+02  0.3769E+03
    -12.966  0.4229E+02  0.3775E+03
    -12.952  0.4255E+02  0.3781E+03
    -12.938  0.4280E+02  0.3787E+03
    -12.924  0.4304E+02  0.3793E+03
    -12.910  0.4327E+02  0.3799E+03
    -12.896  0.4348E+02  0.3805E+03
    -12.882  0.4369E+02  0.3811E+03
    -12.868  0.4388E+02  0.3817E+03
    -12.854  0.4407E+02  0.3824E+03
    -12.840  0.4424E+02  0.3830E+03
    -12.826  0.4441E+02  0.3836E+03
    -12.812  0.4457E+02  0.3842E+03
    -12.798  0.4473E+02  0.3848E+03
    -12.784  0.4488E+02  0.3855E+03
    -12.770  0.4504E+02  0.3861E+03