 191 191   0   0
  0.4824472E+02  0.2446457E-08  0.1883283E-08  0.2000000E-08  0.5000000E-15
  1.000000000000000E-004
  CAR 
 unknown system                          
      3.17992512    -24.50962760 2000     -3.61914544      1.00000000
    -24.510  0.0000E+00  0.0000E+00
    -24.496  0.0000E+00  0.0000E+00
    -24.482  0.0000E+00  0.0000E+00
    -24.468  0.0000E+00  0.0000E+00
    -24.454  0.0000E+00  0.0000E+00
    -24.440  0.0000E+00  0.0000E+00
    -24.427  0.0000E+00  0.0000E+00
    -24.413  0.0000E+00  0.0000E+00
    -24.399  0.0000E+00  0.0000E+00
    -24.385  0.0000E+00  0.0000E+00
    -24.371  0.0000E+00  0.0000E+00
    -24.357  0.0000E+00  0.0000E+00
    -24.343  0.0000E+00  0.0000E+00
    -24.330  0.0000E+00  0.0000E+00
    -24.316  0.0000E+00  0.0000E+00
    -24.302  0.0000E+00  0.0000E+00
    -24.288  0.0000E+00  0.0000E+00
    -24.274  0.0000E+00  0.0000E+00
    -24.260  0.0000E+00  0.0000E+00
    -24.246  0.0000E+00  0.0000E+00
    -24.233  0.0000E+00  0.0000E+00
    -24.219  0.0000E+00  0.0000E+00
    -24.205  0.0000E+00  0.0000E+00
    -24.191  0.0000E+00  0.0000E+00
    -24.177  0.0000E+00  0.0000E+00
    -24.163  0.0000E+00  0.0000E+00
    -24.149  0.0000E+00  0.0000E+00
    -24.136  0.0000E+00  0.0000E+00
    -24.122  0.0000E+00  0.0000E+00
    -24.108  0.0000E+00  0.0000E+00
    -24.094  0.0000E+00  0.0000E+00
    -24.080  0.0000E+00  0.0000E+00
    -24.066  0.0000E+00  0.0000E+00
    -24.053  0.0000E+00  0.0000E+00
    -24.039  0.0000E+00  0.0000E+00
    -24.025  0.0000E+00  0.0000E+00
    -24.011  0.0000E+00  0.0000E+00
    -23.997  0.0000E+00  0.0000E+00
    -23.983  0.0000E+00  0.0000E+00
    -23.969  0.0000E+00  0.0000E+00
    -23.956  0.0000E+00  0.0000E+00
    -23.942  0.0000E+00  0.0000E+00
    -23.928  0.0000E+00  0.0000E+00
    -23.914  0.0000E+00  0.0000E+00
    -23.900  0.0000E+00  0.0000E+00
    -23.886  0.0000E+00  0.0000E+00
    -23.872  0.0000E+00  0.0000E+00
    -23.859  0.0000E+00  0.0000E+00
    -23.845  0.0000E+00  0.0000E+00
    -23.831  0.0000E+00  0.0000E+00
    -23.817  0.0000E+00  0.0000E+00
    -23.803  0.0000E+00  0.0000E+00
    -23.789  0.0000E+00  0.0000E+00
    -23.775  0.0000E+00  0.0000E+00
    -23.762  0.0000E+00  0.0000E+00
    -23.748  0.0000E+00  0.0000E+00
    -23.734  0.0000E+00  0.0000E+00
    -23.720  0.0000E+00  0.0000E+00
    -23.706  0.0000E+00  0.0000E+00
    -23.692  0.2672E-14  0.3701E-16
    -23.679  0.5343E-14  0.1110E-15
    -23.665  0.1069E-13  0.2591E-15
    -23.651  0.2405E-13  0.5921E-15
    -23.637  0.5343E-13  0.1332E-14
    -23.623  0.1202E-12  0.2998E-14
    -23.609  0.2574E-12  0.6563E-14
    -23.595  0.5539E-12  0.1424E-13
    -23.582  0.1174E-11  0.3049E-13
    -23.568  0.2463E-11  0.6461E-13
    -23.554  0.5139E-11  0.1358E-12
    -23.540  0.1060E-10  0.2826E-12
    -23.526  0.2166E-10  0.5826E-12
    -23.512  0.4383E-10  0.1190E-11
    -23.498  0.8787E-10  0.2407E-11
    -23.485  0.1745E-09  0.4824E-11
    -23.471  0.3431E-09  0.9576E-11
    -23.457  0.6683E-09  0.1883E-10
    -23.443  0.1289E-08  0.3669E-10
    -23.429  0.2464E-08  0.7082E-10
    -23.415  0.4663E-08  0.1354E-09
    -23.401  0.8740E-08  0.2565E-09
    -23.388  0.1623E-07  0.4813E-09
    -23.374  0.2984E-07  0.8946E-09
    -23.360  0.5436E-07  0.1648E-08
    -23.346  0.9806E-07  0.3006E-08
    -23.332  0.1752E-06  0.5433E-08
    -23.318  0.3101E-06  0.9729E-08
    -23.305  0.5436E-06  0.1726E-07
    -23.291  0.9438E-06  0.3033E-07
    -23.277  0.1623E-05  0.5281E-07
    -23.263  0.2764E-05  0.9111E-07
    -23.249  0.4664E-05  0.1557E-06
    -23.235  0.7793E-05  0.2636E-06
    -23.221  0.1290E-04  0.4423E-06
    -23.208  0.2114E-04  0.7351E-06
    -23.194  0.3432E-04  0.1211E-05
    -23.180  0.5520E-04  0.1975E-05
    -23.166  0.8792E-04  0.3193E-05
    -23.152  0.1387E-03  0.5114E-05
    -23.138  0.2167E-03  0.8116E-05
    -23.124  0.3354E-03  0.1276E-04
    -23.111  0.5142E-03  0.1989E-04
    -23.097  0.7808E-03  0.3070E-04
    -23.083  0.1174E-02  0.4697E-04
    -23.069  0.1749E-02  0.7119E-04
    -23.055  0.2581E-02  0.1069E-03
    -23.041  0.3772E-02  0.1592E-03
    -23.027  0.5459E-02  0.2348E-03
    -23.014  0.7828E-02  0.3432E-03
    -23.000  0.1112E-01  0.4972E-03
    -22.986  0.1564E-01  0.7138E-03
    -22.972  0.2179E-01  0.1016E-02
    -22.958  0.3008E-01  0.1432E-02
    -22.944  0.4112E-01  0.2002E-02
    -22.931  0.5569E-01  0.2773E-02
    -22.917  0.7471E-01  0.3808E-02
    -22.903  0.9928E-01  0.5183E-02
    -22.889  0.1307E+00  0.6994E-02
    -22.875  0.1705E+00  0.9355E-02
    -22.861  0.2203E+00  0.1241E-01
    -22.847  0.2819E+00  0.1631E-01
    -22.834  0.3576E+00  0.2126E-01
    -22.820  0.4493E+00  0.2749E-01
    -22.806  0.5595E+00  0.3524E-01
    -22.792  0.6903E+00  0.4480E-01
    -22.778  0.8441E+00  0.5649E-01
    -22.764  0.1023E+01  0.7066E-01
    -22.750  0.1229E+01  0.8768E-01
    -22.737  0.1463E+01  0.1080E+00
    -22.723  0.1727E+01  0.1319E+00
    -22.709  0.2022E+01  0.1599E+00
    -22.695  0.2348E+01  0.1924E+00
    -22.681  0.2704E+01  0.2299E+00
    -22.667  0.3089E+01  0.2727E+00
    -22.653  0.3503E+01  0.3212E+00
    -22.640  0.3943E+01  0.3758E+00
    -22.626  0.4406E+01  0.4368E+00
    -22.612  0.4891E+01  0.5046E+00
    -22.598  0.5395E+01  0.5793E+00
    -22.584  0.5914E+01  0.6612E+00
    -22.570  0.6446E+01  0.7505E+00
    -22.557  0.6988E+01  0.8473E+00
    -22.543  0.7540E+01  0.9517E+00
    -22.529  0.8098E+01  0.1064E+01
    -22.515  0.8662E+01  0.1184E+01
    -22.501  0.9231E+01  0.1312E+01
    -22.487  0.9805E+01  0.1448E+01
    -22.473  0.1038E+02  0.1591E+01
    -22.460  0.1096E+02  0.1743E+01
    -22.446  0.1154E+02  0.1903E+01
    -22.432  0.1213E+02  0.2071E+01
    -22.418  0.1271E+02  0.2247E+01
    -22.404  0.1330E+02  0.2431E+01
    -22.390  0.1387E+02  0.2624E+01
    -22.376  0.1444E+02  0.2824E+01
    -22.363  0.1500E+02  0.3032E+01
    -22.349  0.1555E+02  0.3247E+01
    -22.335  0.1607E+02  0.3470E+01
    -22.321  0.1657E+02  0.3699E+01
    -22.307  0.1704E+02  0.3935E+01
    -22.293  0.1748E+02  0.4177E+01
    -22.280  0.1789E+02  0.4425E+01
    -22.266  0.1826E+02  0.4678E+01
    -22.252  0.1859E+02  0.4936E+01
    -22.238  0.1889E+02  0.5197E+01
    -22.224  0.1915E+02  0.5463E+01
    -22.210  0.1937E+02  0.5731E+01
    -22.196  0.1956E+02  0.6002E+01
    -22.183  0.1971E+02  0.6275E+01
    -22.169  0.1983E+02  0.6549E+01
    -22.155  0.1993E+02  0.6825E+01
    -22.141  0.1999E+02  0.7102E+01
    -22.127  0.2003E+02  0.7380E+01
    -22.113  0.2005E+02  0.7657E+01
    -22.099  0.2004E+02  0.7935E+01
    -22.086  0.2001E+02  0.8212E+01
    -22.072  0.1995E+02  0.8488E+01
    -22.058  0.1987E+02  0.8764E+01
    -22.044  0.1976E+02  0.9037E+01
    -22.030  0.1963E+02  0.9309E+01
    -22.016  0.1948E+02  0.9579E+01
    -22.002  0.1930E+02  0.9847E+01
    -21.989  0.1910E+02  0.1011E+02
    -21.975  0.1887E+02  0.1037E+02
    -21.961  0.1863E+02  0.1063E+02
    -21.947  0.1837E+02  0.1088E+02
    -21.933  0.1809E+02  0.1114E+02
    -21.919  0.1781E+02  0.1138E+02
    -21.906  0.1753E+02  0.1163E+02
    -21.892  0.1725E+02  0.1186E+02
    -21.878  0.1698E+02  0.1210E+02
    -21.864  0.1673E+02  0.1233E+02
    -21.850  0.1650E+02  0.1256E+02
    -21.836  0.1631E+02  0.1279E+02
    -21.822  0.1615E+02  0.1301E+02
    -21.809  0.1603E+02  0.1323E+02
    -21.795  0.1596E+02  0.1345E+02
    -21.781  0.1595E+02  0.1367E+02
    -21.767  0.1599E+02  0.1389E+02
    -21.753  0.1608E+02  0.1412E+02
    -21.739  0.1624E+02  0.1434E+02
    -21.725  0.1645E+02  0.1457E+02
    -21.712  0.1671E+02  0.1480E+02
    -21.698  0.1702E+02  0.1504E+02
    -21.684  0.1738E+02  0.1528E+02
    -21.670  0.1778E+02  0.1552E+02
    -21.656  0.1822E+02  0.1578E+02
    -21.642  0.1869E+02  0.1604E+02
    -21.628  0.1919E+02  0.1630E+02
    -21.615  0.1970E+02  0.1657E+02
    -21.601  0.2023E+02  0.1685E+02
    -21.587  0.2076E+02  0.1714E+02
    -21.573  0.2130E+02  0.1744E+02
    -21.559  0.2184E+02  0.1774E+02
    -21.545  0.2237E+02  0.1805E+02
    -21.532  0.2289E+02  0.1837E+02
    -21.518  0.2339E+02  0.1869E+02
    -21.504  0.2388E+02  0.1902E+02
    -21.490  0.2435E+02  0.1936E+02
    -21.476  0.2480E+02  0.1970E+02
    -21.462  0.2522E+02  0.2005E+02
    -21.448  0.2562E+02  0.2041E+02
    -21.435  0.2598E+02  0.2077E+02
    -21.421  0.2631E+02  0.2113E+02
    -21.407  0.2662E+02  0.2150E+02
    -21.393  0.2689E+02  0.2187E+02
    -21.379  0.2712E+02  0.2225E+02
    -21.365  0.2733E+02  0.2263E+02
    -21.351  0.2750E+02  0.2301E+02
    -21.338  0.2765E+02  0.2339E+02
    -21.324  0.2777E+02  0.2377E+02
    -21.310  0.2788E+02  0.2416E+02
    -21.296  0.2796E+02  0.2455E+02
    -21.282  0.2803E+02  0.2494E+02
    -21.268  0.2809E+02  0.2533E+02
    -21.254  0.2815E+02  0.2572E+02
    -21.241  0.2821E+02  0.2611E+02
    -21.227  0.2827E+02  0.2650E+02
    -21.213  0.2834E+02  0.2689E+02
    -21.199  0.2842E+02  0.2728E+02
    -21.185  0.2852E+02  0.2768E+02
    -21.171  0.2863E+02  0.2808E+02
    -21.158  0.2876E+02  0.2847E+02
    -21.144  0.2891E+02  0.2887E+02
    -21.130  0.2907E+02  0.2928E+02
    -21.116  0.2924E+02  0.2968E+02
    -21.102  0.2943E+02  0.3009E+02
    -21.088  0.2962E+02  0.3050E+02
    -21.074  0.2981E+02  0.3091E+02
    -21.061  0.3000E+02  0.3133E+02
    -21.047  0.3018E+02  0.3175E+02
    -21.033  0.3035E+02  0.3217E+02
    -21.019  0.3050E+02  0.3259E+02
    -21.005  0.3063E+02  0.3301E+02
    -20.991  0.3073E+02  0.3344E+02
    -20.977  0.3080E+02  0.3387E+02
    -20.964  0.3083E+02  0.3429E+02
    -20.950  0.3083E+02  0.3472E+02
    -20.936  0.3079E+02  0.3515E+02
    -20.922  0.3072E+02  0.3557E+02
    -20.908  0.3062E+02  0.3600E+02
    -20.894  0.3049E+02  0.3642E+02
    -20.880  0.3033E+02  0.3684E+02
    -20.867  0.3015E+02  0.3726E+02
    -20.853  0.2996E+02  0.3767E+02
    -20.839  0.2976E+02  0.3808E+02
    -20.825  0.2955E+02  0.3849E+02
    -20.811  0.2936E+02  0.3890E+02
    -20.797  0.2917E+02  0.3930E+02
    -20.784  0.2901E+02  0.3971E+02
    -20.770  0.2886E+02  0.4011E+02
    -20.756  0.2875E+02  0.4050E+02
    -20.742  0.2866E+02  0.4090E+02
    -20.728  0.2861E+02  0.4130E+02
    -20.714  0.2858E+02  0.4169E+02
    -20.700  0.2859E+02  0.4209E+02
    -20.687  0.2862E+02  0.4249E+02
    -20.673  0.2868E+02  0.4288E+02
    -20.659  0.2875E+02  0.4328E+02
    -20.645  0.2884E+02  0.4368E+02
    -20.631  0.2893E+02  0.4408E+02
    -20.617  0.2902E+02  0.4448E+02
    -20.603  0.2910E+02  0.4489E+02
    -20.590  0.2917E+02  0.4529E+02
    -20.576  0.2923E+02  0.4570E+02
    -20.562  0.2926E+02  0.4610E+02
    -20.548  0.2927E+02  0.4651E+02
    -20.534  0.2925E+02  0.4691E+02
    -20.520  0.2921E+02  0.4732E+02
    -20.506  0.2914E+02  0.4772E+02
    -20.493  0.2906E+02  0.4812E+02
    -20.479  0.2896E+02  0.4852E+02
    -20.465  0.2885E+02  0.4892E+02
    -20.451  0.2875E+02  0.4932E+02
    -20.437  0.2864E+02  0.4972E+02
    -20.423  0.2855E+02  0.5011E+02
    -20.410  0.2847E+02  0.5051E+02
    -20.396  0.2842E+02  0.5090E+02
    -20.382  0.2840E+02  0.5129E+02
    -20.368  0.2840E+02  0.5169E+02
    -20.354  0.2845E+02  0.5208E+02
    -20.340  0.2853E+02  0.5248E+02
    -20.326  0.2865E+02  0.5287E+02
    -20.313  0.2880E+02  0.5327E+02
    -20.299  0.2899E+02  0.5367E+02
    -20.285  0.2921E+02  0.5408E+02
    -20.271  0.2945E+02  0.5449E+02
    -20.257  0.2970E+02  0.5490E+02
    -20.243  0.2998E+02  0.5531E+02
    -20.229  0.3025E+02  0.5573E+02
    -20.216  0.3053E+02  0.5616E+02
    -20.202  0.3080E+02  0.5658E+02
    -20.188  0.3105E+02  0.5701E+02
    -20.174  0.3129E+02  0.5745E+02
    -20.160  0.3150E+02  0.5788E+02
    -20.146  0.3168E+02  0.5832E+02
    -20.132  0.3183E+02  0.5876E+02
    -20.119  0.3194E+02  0.5920E+02
    -20.105  0.3202E+02  0.5965E+02
    -20.091  0.3207E+02  0.6009E+02
    -20.077  0.3209E+02  0.6054E+02
    -20.063  0.3207E+02  0.6098E+02
    -20.049  0.3203E+02  0.6142E+02
    -20.036  0.3197E+02  0.6187E+02
    -20.022  0.3190E+02  0.6231E+02
    -20.008  0.3181E+02  0.6275E+02
    -19.994  0.3173E+02  0.6319E+02
    -19.980  0.3164E+02  0.6363E+02
    -19.966  0.3156E+02  0.6406E+02
    -19.952  0.3149E+02  0.6450E+02
    -19.939  0.3144E+02  0.6494E+02
    -19.925  0.3141E+02  0.6537E+02
    -19.911  0.3140E+02  0.6581E+02
    -19.897  0.3141E+02  0.6624E+02
    -19.883  0.3144E+02  0.6668E+02
    -19.869  0.3148E+02  0.6711E+02
    -19.855  0.3154E+02  0.6755E+02
    -19.842  0.3161E+02  0.6799E+02
    -19.828  0.3168E+02  0.6843E+02
    -19.814  0.3175E+02  0.6887E+02
    -19.800  0.3181E+02  0.6931E+02
    -19.786  0.3185E+02  0.6975E+02
    -19.772  0.3188E+02  0.7019E+02
    -19.758  0.3188E+02  0.7063E+02
    -19.745  0.3186E+02  0.7107E+02
    -19.731  0.3181E+02  0.7151E+02
    -19.717  0.3173E+02  0.7195E+02
    -19.703  0.3162E+02  0.7239E+02
    -19.689  0.3149E+02  0.7283E+02
    -19.675  0.3133E+02  0.7326E+02
    -19.662  0.3115E+02  0.7369E+02
    -19.648  0.3096E+02  0.7412E+02
    -19.634  0.3076E+02  0.7455E+02
    -19.620  0.3057E+02  0.7497E+02
    -19.606  0.3038E+02  0.7539E+02
    -19.592  0.3020E+02  0.7581E+02
    -19.578  0.3004E+02  0.7623E+02
    -19.565  0.2990E+02  0.7664E+02
    -19.551  0.2979E+02  0.7705E+02
    -19.537  0.2972E+02  0.7746E+02
    -19.523  0.2968E+02  0.7788E+02
    -19.509  0.2967E+02  0.7829E+02
    -19.495  0.2970E+02  0.7870E+02
    -19.481  0.2976E+02  0.7911E+02
    -19.468  0.2986E+02  0.7952E+02
    -19.454  0.2998E+02  0.7994E+02
    -19.440  0.3013E+02  0.8036E+02
    -19.426  0.3029E+02  0.8078E+02
    -19.412  0.3047E+02  0.8120E+02
    -19.398  0.3065E+02  0.8162E+02
    -19.384  0.3084E+02  0.8205E+02
    -19.371  0.3103E+02  0.8248E+02
    -19.357  0.3121E+02  0.8291E+02
    -19.343  0.3138E+02  0.8335E+02
    -19.329  0.3154E+02  0.8378E+02
    -19.315  0.3167E+02  0.8422E+02
    -19.301  0.3179E+02  0.8466E+02
    -19.288  0.3188E+02  0.8510E+02
    -19.274  0.3195E+02  0.8555E+02
    -19.260  0.3199E+02  0.8599E+02
    -19.246  0.3201E+02  0.8643E+02
    -19.232  0.3200E+02  0.8688E+02
    -19.218  0.3197E+02  0.8732E+02
    -19.204  0.3191E+02  0.8776E+02
    -19.191  0.3183E+02  0.8820E+02
    -19.177  0.3173E+02  0.8864E+02
    -19.163  0.3160E+02  0.8908E+02
    -19.149  0.3146E+02  0.8951E+02
    -19.135  0.3129E+02  0.8995E+02
    -19.121  0.3110E+02  0.9038E+02
    -19.107  0.3089E+02  0.9081E+02
    -19.094  0.3066E+02  0.9123E+02
    -19.080  0.3042E+02  0.9165E+02
    -19.066  0.3016E+02  0.9207E+02
    -19.052  0.2988E+02  0.9248E+02
    -19.038  0.2959E+02  0.9289E+02
    -19.024  0.2930E+02  0.9330E+02
    -19.011  0.2900E+02  0.9370E+02
    -18.997  0.2869E+02  0.9410E+02
    -18.983  0.2839E+02  0.9449E+02
    -18.969  0.2810E+02  0.9488E+02
    -18.955  0.2782E+02  0.9527E+02
    -18.941  0.2756E+02  0.9565E+02
    -18.927  0.2733E+02  0.9603E+02
    -18.914  0.2712E+02  0.9640E+02
    -18.900  0.2695E+02  0.9678E+02
    -18.886  0.2681E+02  0.9715E+02
    -18.872  0.2671E+02  0.9752E+02
    -18.858  0.2665E+02  0.9789E+02
    -18.844  0.2663E+02  0.9826E+02
    -18.830  0.2664E+02  0.9863E+02
    -18.817  0.2669E+02  0.9899E+02
    -18.803  0.2676E+02  0.9937E+02
    -18.789  0.2687E+02  0.9974E+02
    -18.775  0.2699E+02  0.1001E+03
    -18.761  0.2712E+02  0.1005E+03
    -18.747  0.2727E+02  0.1009E+03
    -18.733  0.2742E+02  0.1012E+03
    -18.720  0.2757E+02  0.1016E+03
    -18.706  0.2772E+02  0.1020E+03
    -18.692  0.2786E+02  0.1024E+03
    -18.678  0.2799E+02  0.1028E+03
    -18.664  0.2811E+02  0.1032E+03
    -18.650  0.2821E+02  0.1036E+03
    -18.637  0.2830E+02  0.1040E+03
    -18.623  0.2839E+02  0.1043E+03
    -18.609  0.2845E+02  0.1047E+03
    -18.595  0.2851E+02  0.1051E+03
    -18.581  0.2856E+02  0.1055E+03
    -18.567  0.2860E+02  0.1059E+03
    -18.553  0.2864E+02  0.1063E+03
    -18.540  0.2866E+02  0.1067E+03
    -18.526  0.2869E+02  0.1071E+03
    -18.512  0.2870E+02  0.1075E+03
    -18.498  0.2871E+02  0.1079E+03
    -18.484  0.2872E+02  0.1083E+03
    -18.470  0.2871E+02  0.1087E+03
    -18.456  0.2870E+02  0.1091E+03
    -18.443  0.2869E+02  0.1095E+03
    -18.429  0.2866E+02  0.1099E+03
    -18.415  0.2863E+02  0.1103E+03
    -18.401  0.2859E+02  0.1107E+03
    -18.387  0.2854E+02  0.1111E+03
    -18.373  0.2849E+02  0.1115E+03
    -18.359  0.2844E+02  0.1119E+03
    -18.346  0.2838E+02  0.1123E+03
    -18.332  0.2834E+02  0.1127E+03
    -18.318  0.2830E+02  0.1131E+03
    -18.304  0.2827E+02  0.1134E+03
    -18.290  0.2826E+02  0.1138E+03
    -18.276  0.2826E+02  0.1142E+03
    -18.263  0.2829E+02  0.1146E+03
    -18.249  0.2835E+02  0.1150E+03
    -18.235  0.2844E+02  0.1154E+03
    -18.221  0.2855E+02  0.1158E+03
    -18.207  0.2870E+02  0.1162E+03
    -18.193  0.2887E+02  0.1166E+03
    -18.179  0.2907E+02  0.1170E+03
    -18.166  0.2929E+02  0.1174E+03
    -18.152  0.2953E+02  0.1178E+03
    -18.138  0.2979E+02  0.1182E+03
    -18.124  0.3005E+02  0.1187E+03
    -18.110  0.3033E+02  0.1191E+03
    -18.096  0.3059E+02  0.1195E+03
    -18.082  0.3086E+02  0.1199E+03
    -18.069  0.3111E+02  0.1204E+03
    -18.055  0.3134E+02  0.1208E+03
    -18.041  0.3155E+02  0.1212E+03
    -18.027  0.3174E+02  0.1217E+03
    -18.013  0.3191E+02  0.1221E+03
    -17.999  0.3205E+02  0.1225E+03
    -17.985  0.3216E+02  0.1230E+03
    -17.972  0.3225E+02  0.1234E+03
    -17.958  0.3232E+02  0.1239E+03
    -17.944  0.3236E+02  0.1243E+03
    -17.930  0.3238E+02  0.1248E+03
    -17.916  0.3239E+02  0.1252E+03
    -17.902  0.3239E+02  0.1257E+03
    -17.889  0.3238E+02  0.1261E+03
    -17.875  0.3236E+02  0.1266E+03
    -17.861  0.3234E+02  0.1270E+03
    -17.847  0.3233E+02  0.1275E+03
    -17.833  0.3232E+02  0.1279E+03
    -17.819  0.3232E+02  0.1284E+03
    -17.805  0.3232E+02  0.1288E+03
    -17.792  0.3234E+02  0.1293E+03
    -17.778  0.3237E+02  0.1297E+03
    -17.764  0.3241E+02  0.1302E+03
    -17.750  0.3247E+02  0.1306E+03
    -17.736  0.3253E+02  0.1311E+03
    -17.722  0.3261E+02  0.1315E+03
    -17.708  0.3270E+02  0.1320E+03
    -17.695  0.3280E+02  0.1324E+03
    -17.681  0.3291E+02  0.1329E+03
    -17.667  0.3303E+02  0.1333E+03
    -17.653  0.3316E+02  0.1338E+03
    -17.639  0.3329E+02  0.1343E+03
    -17.625  0.3344E+02  0.1347E+03
    -17.611  0.3358E+02  0.1352E+03
    -17.598  0.3374E+02  0.1357E+03
    -17.584  0.3389E+02  0.1361E+03
    -17.570  0.3405E+02  0.1366E+03
    -17.556  0.3420E+02  0.1371E+03
    -17.542  0.3435E+02  0.1375E+03
    -17.528  0.3450E+02  0.1380E+03
    -17.515  0.3464E+02  0.1385E+03
    -17.501  0.3476E+02  0.1390E+03
    -17.487  0.3487E+02  0.1395E+03
    -17.473  0.3495E+02  0.1399E+03
    -17.459  0.3502E+02  0.1404E+03
    -17.445  0.3505E+02  0.1409E+03
    -17.431  0.3505E+02  0.1414E+03
    -17.418  0.3502E+02  0.1419E+03
    -17.404  0.3496E+02  0.1424E+03
    -17.390  0.3486E+02  0.1429E+03
    -17.376  0.3472E+02  0.1433E+03
    -17.362  0.3455E+02  0.1438E+03
    -17.348  0.3435E+02  0.1443E+03
    -17.334  0.3412E+02  0.1448E+03
    -17.321  0.3387E+02  0.1452E+03
    -17.307  0.3360E+02  0.1457E+03
    -17.293  0.3331E+02  0.1462E+03
    -17.279  0.3301E+02  0.1466E+03
    -17.265  0.3271E+02  0.1471E+03
    -17.251  0.3242E+02  0.1475E+03
    -17.237  0.3213E+02  0.1480E+03
    -17.224  0.3185E+02  0.1484E+03
    -17.210  0.3159E+02  0.1488E+03
    -17.196  0.3135E+02  0.1493E+03
    -17.182  0.3113E+02  0.1497E+03
    -17.168  0.3094E+02  0.1501E+03
    -17.154  0.3077E+02  0.1506E+03
    -17.141  0.3062E+02  0.1510E+03
    -17.127  0.3049E+02  0.1514E+03
    -17.113  0.3039E+02  0.1518E+03
    -17.099  0.3031E+02  0.1523E+03
    -17.085  0.3024E+02  0.1527E+03
    -17.071  0.3019E+02  0.1531E+03
    -17.057  0.3015E+02  0.1535E+03
    -17.044  0.3012E+02  0.1539E+03
    -17.030  0.3010E+02  0.1543E+03
    -17.016  0.3009E+02  0.1548E+03
    -17.002  0.3009E+02  0.1552E+03
    -16.988  0.3008E+02  0.1556E+03
    -16.974  0.3008E+02  0.1560E+03
    -16.960  0.3008E+02  0.1564E+03
    -16.947  0.3008E+02  0.1568E+03
    -16.933  0.3008E+02  0.1573E+03
    -16.919  0.3007E+02  0.1577E+03
    -16.905  0.3006E+02  0.1581E+03
    -16.891  0.3004E+02  0.1585E+03
    -16.877  0.3000E+02  0.1589E+03
    -16.863  0.2996E+02  0.1593E+03
    -16.850  0.2990E+02  0.1598E+03
    -16.836  0.2982E+02  0.1602E+03
    -16.822  0.2973E+02  0.1606E+03
    -16.808  0.2961E+02  0.1610E+03
    -16.794  0.2947E+02  0.1614E+03
    -16.780  0.2931E+02  0.1618E+03
    -16.767  0.2912E+02  0.1622E+03
    -16.753  0.2891E+02  0.1626E+03
    -16.739  0.2867E+02  0.1630E+03
    -16.725  0.2841E+02  0.1634E+03
    -16.711  0.2813E+02  0.1638E+03
    -16.697  0.2783E+02  0.1642E+03
    -16.683  0.2751E+02  0.1646E+03
    -16.670  0.2719E+02  0.1649E+03
    -16.656  0.2686E+02  0.1653E+03
    -16.642  0.2653E+02  0.1657E+03
    -16.628  0.2621E+02  0.1660E+03
    -16.614  0.2590E+02  0.1664E+03
    -16.600  0.2561E+02  0.1667E+03
    -16.586  0.2535E+02  0.1671E+03
    -16.573  0.2512E+02  0.1674E+03
    -16.559  0.2493E+02  0.1678E+03
    -16.545  0.2478E+02  0.1681E+03
    -16.531  0.2469E+02  0.1685E+03
    -16.517  0.2464E+02  0.1688E+03
    -16.503  0.2466E+02  0.1692E+03
    -16.489  0.2473E+02  0.1695E+03
    -16.476  0.2486E+02  0.1698E+03
    -16.462  0.2505E+02  0.1702E+03
    -16.448  0.2530E+02  0.1705E+03
    -16.434  0.2560E+02  0.1709E+03
    -16.420  0.2595E+02  0.1713E+03
    -16.406  0.2634E+02  0.1716E+03
    -16.393  0.2677E+02  0.1720E+03
    -16.379  0.2724E+02  0.1724E+03
    -16.365  0.2773E+02  0.1728E+03
    -16.351  0.2823E+02  0.1731E+03
    -16.337  0.2874E+02  0.1735E+03
    -16.323  0.2925E+02  0.1739E+03
    -16.309  0.2975E+02  0.1744E+03
    -16.296  0.3023E+02  0.1748E+03
    -16.282  0.3069E+02  0.1752E+03
    -16.268  0.3111E+02  0.1756E+03
    -16.254  0.3150E+02  0.1761E+03
    -16.240  0.3183E+02  0.1765E+03
    -16.226  0.3212E+02  0.1770E+03
    -16.212  0.3236E+02  0.1774E+03
    -16.199  0.3254E+02  0.1779E+03
    -16.185  0.3266E+02  0.1783E+03
    -16.171  0.3272E+02  0.1788E+03
    -16.157  0.3273E+02  0.1792E+03
    -16.143  0.3269E+02  0.1797E+03
    -16.129  0.3261E+02  0.1801E+03
    -16.115  0.3248E+02  0.1806E+03
    -16.102  0.3232E+02  0.1810E+03
    -16.088  0.3214E+02  0.1815E+03
    -16.074  0.3194E+02  0.1819E+03
    -16.060  0.3174E+02  0.1823E+03
    -16.046  0.3153E+02  0.1828E+03
    -16.032  0.3134E+02  0.1832E+03
    -16.019  0.3117E+02  0.1836E+03
    -16.005  0.3102E+02  0.1841E+03
    -15.991  0.3090E+02  0.1845E+03
    -15.977  0.3082E+02  0.1849E+03
    -15.963  0.3078E+02  0.1854E+03
    -15.949  0.3078E+02  0.1858E+03
    -15.935  0.3082E+02  0.1862E+03
    -15.922  0.3090E+02  0.1866E+03
    -15.908  0.3101E+02  0.1871E+03
    -15.894  0.3114E+02  0.1875E+03
    -15.880  0.3130E+02  0.1879E+03
    -15.866  0.3148E+02  0.1884E+03
    -15.852  0.3166E+02  0.1888E+03
    -15.838  0.3185E+02  0.1892E+03
    -15.825  0.3203E+02  0.1897E+03
    -15.811  0.3219E+02  0.1901E+03
    -15.797  0.3234E+02  0.1906E+03
    -15.783  0.3247E+02  0.1910E+03
    -15.769  0.3256E+02  0.1915E+03
    -15.755  0.3263E+02  0.1919E+03
    -15.742  0.3266E+02  0.1924E+03
    -15.728  0.3266E+02  0.1928E+03
    -15.714  0.3263E+02  0.1933E+03
    -15.700  0.3256E+02  0.1937E+03
    -15.686  0.3247E+02  0.1942E+03
    -15.672  0.3235E+02  0.1946E+03
    -15.658  0.3221E+02  0.1951E+03
    -15.645  0.3205E+02  0.1955E+03
    -15.631  0.3188E+02  0.1960E+03
    -15.617  0.3170E+02  0.1964E+03
    -15.603  0.3153E+02  0.1969E+03
    -15.589  0.3136E+02  0.1973E+03
    -15.575  0.3121E+02  0.1977E+03
    -15.561  0.3107E+02  0.1981E+03
    -15.548  0.3096E+02  0.1986E+03
    -15.534  0.3087E+02  0.1990E+03
    -15.520  0.3082E+02  0.1994E+03
    -15.506  0.3080E+02  0.1999E+03
    -15.492  0.3082E+02  0.2003E+03
    -15.478  0.3088E+02  0.2007E+03
    -15.464  0.3097E+02  0.2011E+03
    -15.451  0.3110E+02  0.2016E+03
    -15.437  0.3126E+02  0.2020E+03
    -15.423  0.3144E+02  0.2024E+03
    -15.409  0.3165E+02  0.2029E+03
    -15.395  0.3187E+02  0.2033E+03
    -15.381  0.3209E+02  0.2038E+03
    -15.368  0.3232E+02  0.2042E+03
    -15.354  0.3254E+02  0.2047E+03
    -15.340  0.3274E+02  0.2051E+03
    -15.326  0.3293E+02  0.2056E+03
    -15.312  0.3308E+02  0.2060E+03
    -15.298  0.3321E+02  0.2065E+03
    -15.284  0.3330E+02  0.2070E+03
    -15.271  0.3335E+02  0.2074E+03
    -15.257  0.3337E+02  0.2079E+03
    -15.243  0.3335E+02  0.2083E+03
    -15.229  0.3330E+02  0.2088E+03
    -15.215  0.3321E+02  0.2093E+03
    -15.201  0.3309E+02  0.2097E+03
    -15.187  0.3295E+02  0.2102E+03
    -15.174  0.3279E+02  0.2106E+03
    -15.160  0.3261E+02  0.2111E+03
    -15.146  0.3242E+02  0.2115E+03
    -15.132  0.3222E+02  0.2120E+03
    -15.118  0.3201E+02  0.2124E+03
    -15.104  0.3179E+02  0.2129E+03
    -15.090  0.3158E+02  0.2133E+03
    -15.077  0.3137E+02  0.2137E+03
    -15.063  0.3116E+02  0.2142E+03
    -15.049  0.3096E+02  0.2146E+03
    -15.035  0.3076E+02  0.2150E+03
    -15.021  0.3056E+02  0.2154E+03
    -15.007  0.3037E+02  0.2159E+03
    -14.994  0.3019E+02  0.2163E+03
    -14.980  0.3002E+02  0.2167E+03
    -14.966  0.2986E+02  0.2171E+03
    -14.952  0.2972E+02  0.2175E+03
    -14.938  0.2958E+02  0.2179E+03
    -14.924  0.2946E+02  0.2183E+03
    -14.910  0.2936E+02  0.2187E+03
    -14.897  0.2929E+02  0.2192E+03
    -14.883  0.2923E+02  0.2196E+03
    -14.869  0.2920E+02  0.2200E+03
    -14.855  0.2919E+02  0.2204E+03
    -14.841  0.2921E+02  0.2208E+03
    -14.827  0.2926E+02  0.2212E+03
    -14.813  0.2934E+02  0.2216E+03
    -14.800  0.2944E+02  0.2220E+03
    -14.786  0.2957E+02  0.2224E+03
    -14.772  0.2973E+02  0.2228E+03
    -14.758  0.2990E+02  0.2232E+03
    -14.744  0.3009E+02  0.2236E+03
    -14.730  0.3030E+02  0.2241E+03
    -14.716  0.3051E+02  0.2245E+03
    -14.703  0.3073E+02  0.2249E+03
    -14.689  0.3096E+02  0.2253E+03
    -14.675  0.3118E+02  0.2258E+03
    -14.661  0.3139E+02  0.2262E+03
    -14.647  0.3160E+02  0.2266E+03
    -14.633  0.3179E+02  0.2271E+03
    -14.620  0.3197E+02  0.2275E+03
    -14.606  0.3214E+02  0.2280E+03
    -14.592  0.3229E+02  0.2284E+03
    -14.578  0.3243E+02  0.2289E+03
    -14.564  0.3255E+02  0.2293E+03
    -14.550  0.3267E+02  0.2298E+03
    -14.536  0.3277E+02  0.2302E+03
    -14.523  0.3288E+02  0.2307E+03
    -14.509  0.3298E+02  0.2311E+03
    -14.495  0.3308E+02  0.2316E+03
    -14.481  0.3318E+02  0.2321E+03
    -14.467  0.3329E+02  0.2325E+03
    -14.453  0.3341E+02  0.2330E+03
    -14.439  0.3354E+02  0.2334E+03
    -14.426  0.3368E+02  0.2339E+03
    -14.412  0.3382E+02  0.2344E+03
    -14.398  0.3398E+02  0.2349E+03
    -14.384  0.3415E+02  0.2353E+03
    -14.370  0.3432E+02  0.2358E+03
    -14.356  0.3449E+02  0.2363E+03
    -14.342  0.3465E+02  0.2368E+03
    -14.329  0.3481E+02  0.2372E+03
    -14.315  0.3496E+02  0.2377E+03
    -14.301  0.3509E+02  0.2382E+03
    -14.287  0.3520E+02  0.2387E+03
    -14.273  0.3529E+02  0.2392E+03
    -14.259  0.3534E+02  0.2397E+03
    -14.246  0.3537E+02  0.2402E+03
    -14.232  0.3536E+02  0.2407E+03
    -14.218  0.3532E+02  0.2411E+03
    -14.204  0.3525E+02  0.2416E+03
    -14.190  0.3514E+02  0.2421E+03
    -14.176  0.3500E+02  0.2426E+03
    -14.162  0.3483E+02  0.2431E+03
    -14.149  0.3464E+02  0.2436E+03
    -14.135  0.3442E+02  0.2440E+03
    -14.121  0.3419E+02  0.2445E+03
    -14.107  0.3394E+02  0.2450E+03
    -14.093  0.3368E+02  0.2455E+03
    -14.079  0.3341E+02  0.2459E+03
    -14.065  0.3314E+02  0.2464E+03
    -14.052  0.3287E+02  0.2468E+03
    -14.038  0.3261E+02  0.2473E+03
    -14.024  0.3235E+02  0.2477E+03
    -14.010  0.3210E+02  0.2482E+03
    -13.996  0.3186E+02  0.2486E+03
    -13.982  0.3164E+02  0.2491E+03
    -13.968  0.3142E+02  0.2495E+03
    -13.955  0.3122E+02  0.2499E+03
    -13.941  0.3103E+02  0.2504E+03
    -13.927  0.3086E+02  0.2508E+03
    -13.913  0.3069E+02  0.2512E+03
    -13.899  0.3054E+02  0.2516E+03
    -13.885  0.3039E+02  0.2521E+03
    -13.872  0.3026E+02  0.2525E+03
    -13.858  0.3014E+02  0.2529E+03
    -13.844  0.3002E+02  0.2533E+03
    -13.830  0.2992E+02  0.2537E+03
    -13.816  0.2984E+02  0.2541E+03
    -13.802  0.2976E+02  0.2545E+03
    -13.788  0.2971E+02  0.2550E+03
    -13.775  0.2967E+02  0.2554E+03
    -13.761  0.2965E+02  0.2558E+03
    -13.747  0.2965E+02  0.2562E+03
    -13.733  0.2968E+02  0.2566E+03
    -13.719  0.2973E+02  0.2570E+03
    -13.705  0.2981E+02  0.2574E+03
    -13.691  0.2991E+02  0.2578E+03
    -13.678  0.3003E+02  0.2583E+03
    -13.664  0.3018E+02  0.2587E+03
    -13.650  0.3035E+02  0.2591E+03
    -13.636  0.3054E+02  0.2595E+03
    -13.622  0.3074E+02  0.2599E+03
    -13.608  0.3096E+02  0.2604E+03
    -13.594  0.3118E+02  0.2608E+03
    -13.581  0.3141E+02  0.2612E+03
    -13.567  0.3164E+02  0.2617E+03
    -13.553  0.3186E+02  0.2621E+03
    -13.539  0.3208E+02  0.2626E+03
    -13.525  0.3230E+02  0.2630E+03
    -13.511  0.3251E+02  0.2635E+03
    -13.498  0.3271E+02  0.2639E+03
    -13.484  0.3291E+02  0.2644E+03
    -13.470  0.3311E+02  0.2648E+03
    -13.456  0.3332E+02  0.2653E+03
    -13.442  0.3353E+02  0.2658E+03
    -13.428  0.3375E+02  0.2662E+03
    -13.414  0.3399E+02  0.2667E+03
    -13.401  0.3425E+02  0.2672E+03
    -13.387  0.3453E+02  0.2676E+03
    -13.373  0.3484E+02  0.2681E+03
    -13.359  0.3517E+02  0.2686E+03
    -13.345  0.3553E+02  0.2691E+03
    -13.331  0.3591E+02  0.2696E+03
    -13.317  0.3631E+02  0.2701E+03
    -13.304  0.3673E+02  0.2706E+03
    -13.290  0.3715E+02  0.2711E+03
    -13.276  0.3758E+02  0.2716E+03
    -13.262  0.3800E+02  0.2722E+03
    -13.248  0.3841E+02  0.2727E+03
    -13.234  0.3880E+02  0.2732E+03
    -13.220  0.3915E+02  0.2738E+03
    -13.207  0.3947E+02  0.2743E+03
    -13.193  0.3974E+02  0.2749E+03
    -13.179  0.3996E+02  0.2754E+03
    -13.165  0.4013E+02  0.2760E+03
    -13.151  0.4024E+02  0.2765E+03
    -13.137  0.4029E+02  0.2771E+03
    -13.124  0.4029E+02  0.2777E+03
    -13.110  0.4024E+02  0.2782E+03
    -13.096  0.4014E+02  0.2788E+03
    -13.082  0.4000E+02  0.2793E+03