 217 217   0   0
  0.5402259E+02  0.2980485E-08  0.1966610E-08  0.2000000E-08  0.5000000E-15
  1.000000000000000E-004
  CAR 
 unknown system                          
      3.10036884    -24.49326246 2000     -3.80876361      1.00000000
    -24.493  0.0000E+00  0.0000E+00
    -24.479  0.0000E+00  0.0000E+00
    -24.466  0.0000E+00  0.0000E+00
    -24.452  0.0000E+00  0.0000E+00
    -24.438  0.0000E+00  0.0000E+00
    -24.424  0.0000E+00  0.0000E+00
    -24.410  0.0000E+00  0.0000E+00
    -24.397  0.0000E+00  0.0000E+00
    -24.383  0.0000E+00  0.0000E+00
    -24.369  0.0000E+00  0.0000E+00
    -24.355  0.0000E+00  0.0000E+00
    -24.341  0.0000E+00  0.0000E+00
    -24.328  0.0000E+00  0.0000E+00
    -24.314  0.0000E+00  0.0000E+00
    -24.300  0.0000E+00  0.0000E+00
    -24.286  0.0000E+00  0.0000E+00
    -24.272  0.0000E+00  0.0000E+00
    -24.259  0.0000E+00  0.0000E+00
    -24.245  0.0000E+00  0.0000E+00
    -24.231  0.0000E+00  0.0000E+00
    -24.217  0.0000E+00  0.0000E+00
    -24.203  0.0000E+00  0.0000E+00
    -24.190  0.0000E+00  0.0000E+00
    -24.176  0.0000E+00  0.0000E+00
    -24.162  0.0000E+00  0.0000E+00
    -24.148  0.0000E+00  0.0000E+00
    -24.134  0.0000E+00  0.0000E+00
    -24.121  0.0000E+00  0.0000E+00
    -24.107  0.0000E+00  0.0000E+00
    -24.093  0.0000E+00  0.0000E+00
    -24.079  0.0000E+00  0.0000E+00
    -24.065  0.0000E+00  0.0000E+00
    -24.052  0.0000E+00  0.0000E+00
    -24.038  0.0000E+00  0.0000E+00
    -24.024  0.0000E+00  0.0000E+00
    -24.010  0.0000E+00  0.0000E+00
    -23.996  0.0000E+00  0.0000E+00
    -23.983  0.0000E+00  0.0000E+00
    -23.969  0.0000E+00  0.0000E+00
    -23.955  0.0000E+00  0.0000E+00
    -23.941  0.0000E+00  0.0000E+00
    -23.927  0.0000E+00  0.0000E+00
    -23.914  0.0000E+00  0.0000E+00
    -23.900  0.0000E+00  0.0000E+00
    -23.886  0.0000E+00  0.0000E+00
    -23.872  0.0000E+00  0.0000E+00
    -23.858  0.0000E+00  0.0000E+00
    -23.844  0.0000E+00  0.0000E+00
    -23.831  0.0000E+00  0.0000E+00
    -23.817  0.0000E+00  0.0000E+00
    -23.803  0.0000E+00  0.0000E+00
    -23.789  0.0000E+00  0.0000E+00
    -23.775  0.0000E+00  0.0000E+00
    -23.762  0.0000E+00  0.0000E+00
    -23.748  0.0000E+00  0.0000E+00
    -23.734  0.0000E+00  0.0000E+00
    -23.720  0.0000E+00  0.0000E+00
    -23.706  0.0000E+00  0.0000E+00
    -23.693  0.0000E+00  0.0000E+00
    -23.679  0.0000E+00  0.0000E+00
    -23.665  0.8043E-14  0.1110E-15
    -23.651  0.8043E-14  0.2220E-15
    -23.637  0.2413E-13  0.5551E-15
    -23.624  0.6434E-13  0.1443E-14
    -23.610  0.1126E-12  0.2998E-14
    -23.596  0.2583E-12  0.6563E-14
    -23.582  0.5514E-12  0.1417E-13
    -23.568  0.1174E-11  0.3038E-13
    -23.555  0.2475E-11  0.6454E-13
    -23.541  0.5154E-11  0.1357E-12
    -23.527  0.1063E-10  0.2824E-12
    -23.513  0.2174E-10  0.5825E-12
    -23.499  0.4404E-10  0.1190E-11
    -23.486  0.8838E-10  0.2410E-11
    -23.472  0.1757E-09  0.4835E-11
    -23.458  0.3459E-09  0.9609E-11
    -23.444  0.6747E-09  0.1892E-10
    -23.430  0.1304E-08  0.3692E-10
    -23.417  0.2495E-08  0.7136E-10
    -23.403  0.4732E-08  0.1367E-09
    -23.389  0.8888E-08  0.2594E-09
    -23.375  0.1654E-07  0.4876E-09
    -23.361  0.3048E-07  0.9084E-09
    -23.348  0.5567E-07  0.1677E-08
    -23.334  0.1007E-06  0.3067E-08
    -23.320  0.1805E-06  0.5558E-08
    -23.306  0.3203E-06  0.9980E-08
    -23.292  0.5634E-06  0.1776E-07
    -23.279  0.9815E-06  0.3130E-07
    -23.265  0.1694E-05  0.5469E-07
    -23.251  0.2896E-05  0.9466E-07
    -23.237  0.4905E-05  0.1624E-06
    -23.223  0.8231E-05  0.2760E-06
    -23.210  0.1368E-04  0.4649E-06
    -23.196  0.2253E-04  0.7759E-06
    -23.182  0.3676E-04  0.1283E-05
    -23.168  0.5941E-04  0.2103E-05
    -23.154  0.9513E-04  0.3417E-05
    -23.140  0.1509E-03  0.5499E-05
    -23.127  0.2371E-03  0.8773E-05
    -23.113  0.3692E-03  0.1387E-04
    -23.099  0.5694E-03  0.2173E-04
    -23.085  0.8701E-03  0.3374E-04
    -23.071  0.1317E-02  0.5192E-04
    -23.058  0.1976E-02  0.7920E-04
    -23.044  0.2936E-02  0.1197E-03
    -23.030  0.4322E-02  0.1794E-03
    -23.016  0.6304E-02  0.2664E-03
    -23.002  0.9110E-02  0.3922E-03
    -22.989  0.1304E-01  0.5722E-03
    -22.975  0.1850E-01  0.8276E-03
    -22.961  0.2600E-01  0.1187E-02
    -22.947  0.3621E-01  0.1686E-02
    -22.933  0.4996E-01  0.2376E-02
    -22.920  0.6830E-01  0.3319E-02
    -22.906  0.9251E-01  0.4596E-02
    -22.892  0.1242E+00  0.6310E-02
    -22.878  0.1651E+00  0.8589E-02
    -22.864  0.2176E+00  0.1159E-01
    -22.851  0.2841E+00  0.1551E-01
    -22.837  0.3677E+00  0.2059E-01
    -22.823  0.4714E+00  0.2710E-01
    -22.809  0.5991E+00  0.3537E-01
    -22.795  0.7544E+00  0.4578E-01
    -22.782  0.9415E+00  0.5878E-01
    -22.768  0.1165E+01  0.7485E-01
    -22.754  0.1428E+01  0.9456E-01
    -22.740  0.1735E+01  0.1185E+00
    -22.726  0.2089E+01  0.1473E+00
    -22.713  0.2495E+01  0.1818E+00
    -22.699  0.2953E+01  0.2225E+00
    -22.685  0.3465E+01  0.2704E+00
    -22.671  0.4032E+01  0.3260E+00
    -22.657  0.4652E+01  0.3903E+00
    -22.644  0.5323E+01  0.4637E+00
    -22.630  0.6041E+01  0.5471E+00
    -22.616  0.6801E+01  0.6410E+00
    -22.602  0.7595E+01  0.7459E+00
    -22.588  0.8415E+01  0.8620E+00
    -22.575  0.9254E+01  0.9897E+00
    -22.561  0.1010E+02  0.1129E+01
    -22.547  0.1094E+02  0.1280E+01
    -22.533  0.1177E+02  0.1443E+01
    -22.519  0.1258E+02  0.1616E+01
    -22.506  0.1335E+02  0.1801E+01
    -22.492  0.1408E+02  0.1995E+01
    -22.478  0.1476E+02  0.2199E+01
    -22.464  0.1538E+02  0.2411E+01
    -22.450  0.1594E+02  0.2631E+01
    -22.437  0.1644E+02  0.2858E+01
    -22.423  0.1686E+02  0.3091E+01
    -22.409  0.1722E+02  0.3329E+01
    -22.395  0.1751E+02  0.3570E+01
    -22.381  0.1773E+02  0.3815E+01
    -22.367  0.1789E+02  0.4062E+01
    -22.354  0.1799E+02  0.4310E+01
    -22.340  0.1803E+02  0.4559E+01
    -22.326  0.1802E+02  0.4808E+01
    -22.312  0.1797E+02  0.5056E+01
    -22.298  0.1787E+02  0.5303E+01
    -22.285  0.1774E+02  0.5548E+01
    -22.271  0.1758E+02  0.5791E+01
    -22.257  0.1740E+02  0.6031E+01
    -22.243  0.1719E+02  0.6268E+01
    -22.229  0.1698E+02  0.6502E+01
    -22.216  0.1676E+02  0.6734E+01
    -22.202  0.1655E+02  0.6962E+01
    -22.188  0.1634E+02  0.7188E+01
    -22.174  0.1615E+02  0.7411E+01
    -22.160  0.1598E+02  0.7631E+01
    -22.147  0.1584E+02  0.7850E+01
    -22.133  0.1573E+02  0.8067E+01
    -22.119  0.1567E+02  0.8284E+01
    -22.105  0.1564E+02  0.8499E+01
    -22.091  0.1567E+02  0.8716E+01
    -22.078  0.1574E+02  0.8933E+01
    -22.064  0.1588E+02  0.9152E+01
    -22.050  0.1606E+02  0.9374E+01
    -22.036  0.1630E+02  0.9599E+01
    -22.022  0.1660E+02  0.9828E+01
    -22.009  0.1694E+02  0.1006E+02
    -21.995  0.1734E+02  0.1030E+02
    -21.981  0.1778E+02  0.1055E+02
    -21.967  0.1826E+02  0.1080E+02
    -21.953  0.1877E+02  0.1106E+02
    -21.940  0.1931E+02  0.1132E+02
    -21.926  0.1987E+02  0.1160E+02
    -21.912  0.2045E+02  0.1188E+02
    -21.898  0.2104E+02  0.1217E+02
    -21.884  0.2163E+02  0.1247E+02
    -21.871  0.2222E+02  0.1278E+02
    -21.857  0.2280E+02  0.1309E+02
    -21.843  0.2338E+02  0.1341E+02
    -21.829  0.2394E+02  0.1374E+02
    -21.815  0.2449E+02  0.1408E+02
    -21.802  0.2503E+02  0.1443E+02
    -21.788  0.2556E+02  0.1478E+02
    -21.774  0.2608E+02  0.1514E+02
    -21.760  0.2659E+02  0.1551E+02
    -21.746  0.2709E+02  0.1588E+02
    -21.733  0.2759E+02  0.1626E+02
    -21.719  0.2808E+02  0.1665E+02
    -21.705  0.2856E+02  0.1704E+02
    -21.691  0.2903E+02  0.1745E+02
    -21.677  0.2950E+02  0.1785E+02
    -21.664  0.2996E+02  0.1827E+02
    -21.650  0.3040E+02  0.1869E+02
    -21.636  0.3083E+02  0.1911E+02
    -21.622  0.3124E+02  0.1954E+02
    -21.608  0.3161E+02  0.1998E+02
    -21.594  0.3196E+02  0.2042E+02
    -21.581  0.3226E+02  0.2087E+02
    -21.567  0.3253E+02  0.2131E+02
    -21.553  0.3274E+02  0.2177E+02
    -21.539  0.3291E+02  0.2222E+02
    -21.525  0.3302E+02  0.2268E+02
    -21.512  0.3307E+02  0.2313E+02
    -21.498  0.3307E+02  0.2359E+02
    -21.484  0.3302E+02  0.2405E+02
    -21.470  0.3291E+02  0.2450E+02
    -21.456  0.3275E+02  0.2495E+02
    -21.443  0.3255E+02  0.2540E+02
    -21.429  0.3231E+02  0.2585E+02
    -21.415  0.3204E+02  0.2629E+02
    -21.401  0.3174E+02  0.2673E+02
    -21.387  0.3143E+02  0.2716E+02
    -21.374  0.3110E+02  0.2759E+02
    -21.360  0.3077E+02  0.2802E+02
    -21.346  0.3044E+02  0.2844E+02
    -21.332  0.3012E+02  0.2885E+02
    -21.318  0.2981E+02  0.2926E+02
    -21.305  0.2953E+02  0.2967E+02
    -21.291  0.2927E+02  0.3007E+02
    -21.277  0.2904E+02  0.3048E+02
    -21.263  0.2885E+02  0.3087E+02
    -21.249  0.2869E+02  0.3127E+02
    -21.236  0.2858E+02  0.3166E+02
    -21.222  0.2851E+02  0.3206E+02
    -21.208  0.2848E+02  0.3245E+02
    -21.194  0.2850E+02  0.3284E+02
    -21.180  0.2857E+02  0.3324E+02
    -21.167  0.2868E+02  0.3363E+02
    -21.153  0.2884E+02  0.3403E+02
    -21.139  0.2903E+02  0.3443E+02
    -21.125  0.2927E+02  0.3484E+02
    -21.111  0.2955E+02  0.3525E+02
    -21.098  0.2986E+02  0.3566E+02
    -21.084  0.3019E+02  0.3607E+02
    -21.070  0.3055E+02  0.3650E+02
    -21.056  0.3093E+02  0.3692E+02
    -21.042  0.3131E+02  0.3736E+02
    -21.029  0.3170E+02  0.3779E+02
    -21.015  0.3209E+02  0.3824E+02
    -21.001  0.3246E+02  0.3868E+02
    -20.987  0.3282E+02  0.3914E+02
    -20.973  0.3315E+02  0.3959E+02
    -20.960  0.3346E+02  0.4006E+02
    -20.946  0.3373E+02  0.4052E+02
    -20.932  0.3397E+02  0.4099E+02
    -20.918  0.3417E+02  0.4146E+02
    -20.904  0.3432E+02  0.4194E+02
    -20.890  0.3443E+02  0.4241E+02
    -20.877  0.3450E+02  0.4289E+02
    -20.863  0.3453E+02  0.4336E+02
    -20.849  0.3451E+02  0.4384E+02
    -20.835  0.3446E+02  0.4432E+02
    -20.821  0.3437E+02  0.4479E+02
    -20.808  0.3426E+02  0.4526E+02
    -20.794  0.3411E+02  0.4573E+02
    -20.780  0.3394E+02  0.4620E+02
    -20.766  0.3376E+02  0.4667E+02
    -20.752  0.3355E+02  0.4713E+02
    -20.739  0.3334E+02  0.4759E+02
    -20.725  0.3313E+02  0.4805E+02
    -20.711  0.3291E+02  0.4850E+02
    -20.697  0.3270E+02  0.4896E+02
    -20.683  0.3249E+02  0.4940E+02
    -20.670  0.3229E+02  0.4985E+02
    -20.656  0.3211E+02  0.5029E+02
    -20.642  0.3194E+02  0.5073E+02
    -20.628  0.3180E+02  0.5117E+02
    -20.614  0.3167E+02  0.5161E+02
    -20.601  0.3156E+02  0.5205E+02
    -20.587  0.3148E+02  0.5248E+02
    -20.573  0.3142E+02  0.5291E+02
    -20.559  0.3138E+02  0.5335E+02
    -20.545  0.3136E+02  0.5378E+02
    -20.532  0.3137E+02  0.5421E+02
    -20.518  0.3140E+02  0.5465E+02
    -20.504  0.3144E+02  0.5508E+02
    -20.490  0.3150E+02  0.5552E+02
    -20.476  0.3157E+02  0.5595E+02
    -20.463  0.3165E+02  0.5639E+02
    -20.449  0.3173E+02  0.5683E+02
    -20.435  0.3182E+02  0.5726E+02
    -20.421  0.3191E+02  0.5771E+02
    -20.407  0.3200E+02  0.5815E+02
    -20.394  0.3208E+02  0.5859E+02
    -20.380  0.3217E+02  0.5903E+02
    -20.366  0.3224E+02  0.5948E+02
    -20.352  0.3232E+02  0.5993E+02
    -20.338  0.3239E+02  0.6037E+02
    -20.325  0.3246E+02  0.6082E+02
    -20.311  0.3252E+02  0.6127E+02
    -20.297  0.3259E+02  0.6172E+02
    -20.283  0.3267E+02  0.6217E+02
    -20.269  0.3274E+02  0.6262E+02
    -20.256  0.3283E+02  0.6308E+02
    -20.242  0.3292E+02  0.6353E+02
    -20.228  0.3302E+02  0.6399E+02
    -20.214  0.3313E+02  0.6444E+02
    -20.200  0.3325E+02  0.6490E+02
    -20.187  0.3338E+02  0.6536E+02
    -20.173  0.3352E+02  0.6583E+02
    -20.159  0.3365E+02  0.6629E+02
    -20.145  0.3380E+02  0.6676E+02
    -20.131  0.3393E+02  0.6722E+02
    -20.117  0.3407E+02  0.6769E+02
    -20.104  0.3419E+02  0.6817E+02
    -20.090  0.3430E+02  0.6864E+02
    -20.076  0.3439E+02  0.6911E+02
    -20.062  0.3447E+02  0.6959E+02
    -20.048  0.3452E+02  0.7007E+02
    -20.035  0.3455E+02  0.7054E+02
    -20.021  0.3457E+02  0.7102E+02
    -20.007  0.3456E+02  0.7150E+02
    -19.993  0.3453E+02  0.7198E+02
    -19.979  0.3449E+02  0.7245E+02
    -19.966  0.3444E+02  0.7293E+02
    -19.952  0.3439E+02  0.7340E+02
    -19.938  0.3433E+02  0.7388E+02
    -19.924  0.3428E+02  0.7435E+02
    -19.910  0.3424E+02  0.7482E+02
    -19.897  0.3422E+02  0.7529E+02
    -19.883  0.3422E+02  0.7577E+02
    -19.869  0.3425E+02  0.7624E+02
    -19.855  0.3430E+02  0.7671E+02
    -19.841  0.3438E+02  0.7719E+02
    -19.828  0.3449E+02  0.7766E+02
    -19.814  0.3463E+02  0.7814E+02
    -19.800  0.3479E+02  0.7862E+02
    -19.786  0.3497E+02  0.7910E+02
    -19.772  0.3518E+02  0.7959E+02
    -19.759  0.3539E+02  0.8008E+02
    -19.745  0.3561E+02  0.8057E+02
    -19.731  0.3582E+02  0.8106E+02
    -19.717  0.3603E+02  0.8156E+02
    -19.703  0.3623E+02  0.8206E+02
    -19.690  0.3641E+02  0.8256E+02
    -19.676  0.3656E+02  0.8307E+02
    -19.662  0.3668E+02  0.8357E+02
    -19.648  0.3677E+02  0.8408E+02
    -19.634  0.3683E+02  0.8459E+02
    -19.621  0.3685E+02  0.8510E+02
    -19.607  0.3683E+02  0.8561E+02
    -19.593  0.3677E+02  0.8611E+02
    -19.579  0.3667E+02  0.8662E+02
    -19.565  0.3654E+02  0.8713E+02
    -19.552  0.3637E+02  0.8763E+02
    -19.538  0.3618E+02  0.8813E+02
    -19.524  0.3596E+02  0.8862E+02
    -19.510  0.3573E+02  0.8912E+02
    -19.496  0.3548E+02  0.8961E+02
    -19.483  0.3523E+02  0.9009E+02
    -19.469  0.3498E+02  0.9058E+02
    -19.455  0.3473E+02  0.9105E+02
    -19.441  0.3451E+02  0.9153E+02
    -19.427  0.3431E+02  0.9200E+02
    -19.413  0.3414E+02  0.9248E+02
    -19.400  0.3401E+02  0.9295E+02
    -19.386  0.3392E+02  0.9341E+02
    -19.372  0.3389E+02  0.9388E+02
    -19.358  0.3391E+02  0.9435E+02
    -19.344  0.3398E+02  0.9482E+02
    -19.331  0.3412E+02  0.9529E+02
    -19.317  0.3432E+02  0.9576E+02
    -19.303  0.3458E+02  0.9624E+02
    -19.289  0.3490E+02  0.9672E+02
    -19.275  0.3527E+02  0.9721E+02
    -19.262  0.3568E+02  0.9770E+02
    -19.248  0.3614E+02  0.9820E+02
    -19.234  0.3662E+02  0.9871E+02
    -19.220  0.3713E+02  0.9922E+02
    -19.206  0.3765E+02  0.9974E+02
    -19.193  0.3818E+02  0.1003E+03
    -19.179  0.3869E+02  0.1008E+03
    -19.165  0.3919E+02  0.1013E+03
    -19.151  0.3965E+02  0.1019E+03
    -19.137  0.4008E+02  0.1024E+03
    -19.124  0.4046E+02  0.1030E+03
    -19.110  0.4079E+02  0.1036E+03
    -19.096  0.4106E+02  0.1041E+03
    -19.082  0.4126E+02  0.1047E+03
    -19.068  0.4140E+02  0.1053E+03
    -19.055  0.4147E+02  0.1058E+03
    -19.041  0.4146E+02  0.1064E+03
    -19.027  0.4140E+02  0.1070E+03
    -19.013  0.4126E+02  0.1076E+03
    -18.999  0.4107E+02  0.1081E+03
    -18.986  0.4082E+02  0.1087E+03
    -18.972  0.4053E+02  0.1092E+03
    -18.958  0.4019E+02  0.1098E+03
    -18.944  0.3983E+02  0.1104E+03
    -18.930  0.3943E+02  0.1109E+03
    -18.917  0.3903E+02  0.1114E+03
    -18.903  0.3861E+02  0.1120E+03
    -18.889  0.3820E+02  0.1125E+03
    -18.875  0.3779E+02  0.1130E+03
    -18.861  0.3740E+02  0.1135E+03
    -18.848  0.3703E+02  0.1140E+03
    -18.834  0.3668E+02  0.1145E+03
    -18.820  0.3637E+02  0.1151E+03
    -18.806  0.3609E+02  0.1155E+03
    -18.792  0.3585E+02  0.1160E+03
    -18.779  0.3564E+02  0.1165E+03
    -18.765  0.3547E+02  0.1170E+03
    -18.751  0.3533E+02  0.1175E+03
    -18.737  0.3522E+02  0.1180E+03
    -18.723  0.3514E+02  0.1185E+03
    -18.710  0.3508E+02  0.1190E+03
    -18.696  0.3505E+02  0.1195E+03
    -18.682  0.3504E+02  0.1199E+03
    -18.668  0.3505E+02  0.1204E+03
    -18.654  0.3506E+02  0.1209E+03
    -18.640  0.3509E+02  0.1214E+03
    -18.627  0.3514E+02  0.1219E+03
    -18.613  0.3519E+02  0.1224E+03
    -18.599  0.3524E+02  0.1228E+03
    -18.585  0.3531E+02  0.1233E+03
    -18.571  0.3538E+02  0.1238E+03
    -18.558  0.3546E+02  0.1243E+03
    -18.544  0.3555E+02  0.1248E+03
    -18.530  0.3565E+02  0.1253E+03
    -18.516  0.3575E+02  0.1258E+03
    -18.502  0.3585E+02  0.1263E+03
    -18.489  0.3596E+02  0.1268E+03
    -18.475  0.3607E+02  0.1273E+03
    -18.461  0.3619E+02  0.1278E+03
    -18.447  0.3630E+02  0.1283E+03
    -18.433  0.3642E+02  0.1288E+03
    -18.420  0.3653E+02  0.1293E+03
    -18.406  0.3664E+02  0.1298E+03
    -18.392  0.3674E+02  0.1303E+03
    -18.378  0.3684E+02  0.1308E+03
    -18.364  0.3694E+02  0.1313E+03
    -18.351  0.3704E+02  0.1318E+03
    -18.337  0.3714E+02  0.1323E+03
    -18.323  0.3725E+02  0.1329E+03
    -18.309  0.3736E+02  0.1334E+03
    -18.295  0.3749E+02  0.1339E+03
    -18.282  0.3763E+02  0.1344E+03
    -18.268  0.3779E+02  0.1349E+03
    -18.254  0.3798E+02  0.1355E+03
    -18.240  0.3819E+02  0.1360E+03
    -18.226  0.3844E+02  0.1365E+03
    -18.213  0.3871E+02  0.1370E+03
    -18.199  0.3902E+02  0.1376E+03
    -18.185  0.3935E+02  0.1381E+03
    -18.171  0.3971E+02  0.1387E+03
    -18.157  0.4009E+02  0.1392E+03
    -18.144  0.4048E+02  0.1398E+03
    -18.130  0.4089E+02  0.1404E+03
    -18.116  0.4130E+02  0.1409E+03
    -18.102  0.4170E+02  0.1415E+03
    -18.088  0.4210E+02  0.1421E+03
    -18.075  0.4247E+02  0.1427E+03
    -18.061  0.4282E+02  0.1433E+03
    -18.047  0.4313E+02  0.1439E+03
    -18.033  0.4341E+02  0.1444E+03
    -18.019  0.4365E+02  0.1451E+03
    -18.006  0.4384E+02  0.1457E+03
    -17.992  0.4400E+02  0.1463E+03
    -17.978  0.4412E+02  0.1469E+03
    -17.964  0.4420E+02  0.1475E+03
    -17.950  0.4424E+02  0.1481E+03
    -17.936  0.4426E+02  0.1487E+03
    -17.923  0.4425E+02  0.1493E+03
    -17.909  0.4421E+02  0.1499E+03
    -17.895  0.4416E+02  0.1505E+03
    -17.881  0.4409E+02  0.1511E+03
    -17.867  0.4401E+02  0.1518E+03
    -17.854  0.4392E+02  0.1524E+03
    -17.840  0.4382E+02  0.1530E+03
    -17.826  0.4371E+02  0.1536E+03
    -17.812  0.4358E+02  0.1542E+03
    -17.798  0.4344E+02  0.1548E+03
    -17.785  0.4328E+02  0.1554E+03
    -17.771  0.4310E+02  0.1560E+03
    -17.757  0.4290E+02  0.1566E+03
    -17.743  0.4267E+02  0.1571E+03
    -17.729  0.4241E+02  0.1577E+03
    -17.716  0.4212E+02  0.1583E+03
    -17.702  0.4181E+02  0.1589E+03
    -17.688  0.4147E+02  0.1595E+03
    -17.674  0.4111E+02  0.1600E+03
    -17.660  0.4072E+02  0.1606E+03
    -17.647  0.4033E+02  0.1611E+03
    -17.633  0.3992E+02  0.1617E+03
    -17.619  0.3951E+02  0.1622E+03
    -17.605  0.3910E+02  0.1628E+03
    -17.591  0.3871E+02  0.1633E+03
    -17.578  0.3832E+02  0.1638E+03
    -17.564  0.3796E+02  0.1644E+03
    -17.550  0.3763E+02  0.1649E+03
    -17.536  0.3733E+02  0.1654E+03
    -17.522  0.3705E+02  0.1659E+03
    -17.509  0.3682E+02  0.1664E+03
    -17.495  0.3662E+02  0.1669E+03
    -17.481  0.3645E+02  0.1674E+03
    -17.467  0.3631E+02  0.1679E+03
    -17.453  0.3621E+02  0.1684E+03
    -17.440  0.3613E+02  0.1689E+03
    -17.426  0.3608E+02  0.1694E+03
    -17.412  0.3605E+02  0.1699E+03
    -17.398  0.3603E+02  0.1704E+03
    -17.384  0.3602E+02  0.1709E+03
    -17.371  0.3601E+02  0.1714E+03
    -17.357  0.3601E+02  0.1719E+03
    -17.343  0.3600E+02  0.1724E+03
    -17.329  0.3599E+02  0.1729E+03
    -17.315  0.3596E+02  0.1734E+03
    -17.302  0.3592E+02  0.1739E+03
    -17.288  0.3586E+02  0.1744E+03
    -17.274  0.3578E+02  0.1749E+03
    -17.260  0.3568E+02  0.1754E+03
    -17.246  0.3555E+02  0.1759E+03
    -17.233  0.3540E+02  0.1764E+03
    -17.219  0.3523E+02  0.1768E+03
    -17.205  0.3502E+02  0.1773E+03
    -17.191  0.3479E+02  0.1778E+03
    -17.177  0.3454E+02  0.1783E+03
    -17.163  0.3426E+02  0.1788E+03
    -17.150  0.3396E+02  0.1792E+03
    -17.136  0.3365E+02  0.1797E+03
    -17.122  0.3332E+02  0.1802E+03
    -17.108  0.3299E+02  0.1806E+03
    -17.094  0.3265E+02  0.1811E+03
    -17.081  0.3231E+02  0.1815E+03
    -17.067  0.3199E+02  0.1819E+03
    -17.053  0.3167E+02  0.1824E+03
    -17.039  0.3138E+02  0.1828E+03
    -17.025  0.3112E+02  0.1832E+03
    -17.012  0.3088E+02  0.1837E+03
    -16.998  0.3068E+02  0.1841E+03
    -16.984  0.3052E+02  0.1845E+03
    -16.970  0.3040E+02  0.1849E+03
    -16.956  0.3032E+02  0.1854E+03
    -16.943  0.3027E+02  0.1858E+03
    -16.929  0.3027E+02  0.1862E+03
    -16.915  0.3030E+02  0.1866E+03
    -16.901  0.3037E+02  0.1870E+03
    -16.887  0.3046E+02  0.1875E+03
    -16.874  0.3057E+02  0.1879E+03
    -16.860  0.3070E+02  0.1883E+03
    -16.846  0.3083E+02  0.1887E+03
    -16.832  0.3097E+02  0.1891E+03
    -16.818  0.3110E+02  0.1896E+03
    -16.805  0.3122E+02  0.1900E+03
    -16.791  0.3132E+02  0.1904E+03
    -16.777  0.3140E+02  0.1909E+03
    -16.763  0.3144E+02  0.1913E+03
    -16.749  0.3146E+02  0.1917E+03
    -16.736  0.3143E+02  0.1922E+03
    -16.722  0.3136E+02  0.1926E+03
    -16.708  0.3126E+02  0.1930E+03
    -16.694  0.3111E+02  0.1935E+03
    -16.680  0.3092E+02  0.1939E+03
    -16.667  0.3069E+02  0.1943E+03
    -16.653  0.3043E+02  0.1947E+03
    -16.639  0.3014E+02  0.1952E+03
    -16.625  0.2982E+02  0.1956E+03
    -16.611  0.2949E+02  0.1960E+03
    -16.598  0.2916E+02  0.1964E+03
    -16.584  0.2882E+02  0.1968E+03
    -16.570  0.2850E+02  0.1972E+03
    -16.556  0.2819E+02  0.1976E+03
    -16.542  0.2791E+02  0.1979E+03
    -16.529  0.2766E+02  0.1983E+03
    -16.515  0.2745E+02  0.1987E+03
    -16.501  0.2730E+02  0.1991E+03
    -16.487  0.2720E+02  0.1995E+03
    -16.473  0.2715E+02  0.1998E+03
    -16.459  0.2717E+02  0.2002E+03
    -16.446  0.2725E+02  0.2006E+03
    -16.432  0.2739E+02  0.2010E+03
    -16.418  0.2759E+02  0.2013E+03
    -16.404  0.2785E+02  0.2017E+03
    -16.390  0.2817E+02  0.2021E+03
    -16.377  0.2853E+02  0.2025E+03
    -16.363  0.2893E+02  0.2029E+03
    -16.349  0.2938E+02  0.2033E+03
    -16.335  0.2985E+02  0.2037E+03
    -16.321  0.3035E+02  0.2041E+03
    -16.308  0.3087E+02  0.2046E+03
    -16.294  0.3139E+02  0.2050E+03
    -16.280  0.3192E+02  0.2054E+03
    -16.266  0.3244E+02  0.2059E+03
    -16.252  0.3296E+02  0.2063E+03
    -16.239  0.3345E+02  0.2068E+03
    -16.225  0.3392E+02  0.2073E+03
    -16.211  0.3436E+02  0.2078E+03
    -16.197  0.3477E+02  0.2082E+03
    -16.183  0.3513E+02  0.2087E+03
    -16.170  0.3545E+02  0.2092E+03
    -16.156  0.3573E+02  0.2097E+03
    -16.142  0.3595E+02  0.2102E+03
    -16.128  0.3612E+02  0.2107E+03
    -16.114  0.3624E+02  0.2112E+03
    -16.101  0.3631E+02  0.2117E+03
    -16.087  0.3632E+02  0.2122E+03
    -16.073  0.3628E+02  0.2127E+03
    -16.059  0.3619E+02  0.2132E+03
    -16.045  0.3605E+02  0.2137E+03
    -16.032  0.3587E+02  0.2142E+03
    -16.018  0.3565E+02  0.2147E+03
    -16.004  0.3539E+02  0.2152E+03
    -15.990  0.3511E+02  0.2157E+03
    -15.976  0.3480E+02  0.2161E+03
    -15.963  0.3448E+02  0.2166E+03
    -15.949  0.3414E+02  0.2171E+03
    -15.935  0.3381E+02  0.2176E+03
    -15.921  0.3347E+02  0.2180E+03
    -15.907  0.3315E+02  0.2185E+03
    -15.894  0.3284E+02  0.2189E+03
    -15.880  0.3256E+02  0.2194E+03
    -15.866  0.3230E+02  0.2198E+03
    -15.852  0.3208E+02  0.2203E+03
    -15.838  0.3189E+02  0.2207E+03
    -15.825  0.3174E+02  0.2211E+03
    -15.811  0.3164E+02  0.2216E+03
    -15.797  0.3159E+02  0.2220E+03
    -15.783  0.3158E+02  0.2224E+03
    -15.769  0.3161E+02  0.2229E+03
    -15.756  0.3169E+02  0.2233E+03
    -15.742  0.3182E+02  0.2238E+03
    -15.728  0.3198E+02  0.2242E+03
    -15.714  0.3218E+02  0.2246E+03
    -15.700  0.3241E+02  0.2251E+03
    -15.686  0.3266E+02  0.2255E+03
    -15.673  0.3294E+02  0.2260E+03
    -15.659  0.3322E+02  0.2265E+03
    -15.645  0.3352E+02  0.2269E+03
    -15.631  0.3382E+02  0.2274E+03
    -15.617  0.3412E+02  0.2279E+03
    -15.604  0.3441E+02  0.2283E+03
    -15.590  0.3468E+02  0.2288E+03
    -15.576  0.3494E+02  0.2293E+03
    -15.562  0.3518E+02  0.2298E+03
    -15.548  0.3540E+02  0.2303E+03
    -15.535  0.3560E+02  0.2308E+03
    -15.521  0.3577E+02  0.2313E+03
    -15.507  0.3591E+02  0.2318E+03
    -15.493  0.3604E+02  0.2322E+03
    -15.479  0.3614E+02  0.2327E+03
    -15.466  0.3622E+02  0.2332E+03
    -15.452  0.3629E+02  0.2337E+03
    -15.438  0.3635E+02  0.2342E+03
    -15.424  0.3640E+02  0.2348E+03
    -15.410  0.3645E+02  0.2353E+03
    -15.397  0.3649E+02  0.2358E+03
    -15.383  0.3654E+02  0.2363E+03
    -15.369  0.3659E+02  0.2368E+03
    -15.355  0.3665E+02  0.2373E+03
    -15.341  0.3672E+02  0.2378E+03
    -15.328  0.3680E+02  0.2383E+03
    -15.314  0.3689E+02  0.2388E+03
    -15.300  0.3699E+02  0.2393E+03
    -15.286  0.3710E+02  0.2398E+03
    -15.272  0.3723E+02  0.2403E+03
    -15.259  0.3736E+02  0.2409E+03
    -15.245  0.3749E+02  0.2414E+03
    -15.231  0.3763E+02  0.2419E+03
    -15.217  0.3777E+02  0.2424E+03
    -15.203  0.3791E+02  0.2429E+03
    -15.190  0.3805E+02  0.2435E+03
    -15.176  0.3819E+02  0.2440E+03
    -15.162  0.3832E+02  0.2445E+03
    -15.148  0.3845E+02  0.2450E+03
    -15.134  0.3857E+02  0.2456E+03
    -15.121  0.3868E+02  0.2461E+03
    -15.107  0.3879E+02  0.2466E+03
    -15.093  0.3890E+02  0.2472E+03
    -15.079  0.3900E+02  0.2477E+03
    -15.065  0.3909E+02  0.2483E+03
    -15.052  0.3918E+02  0.2488E+03
    -15.038  0.3927E+02  0.2493E+03
    -15.024  0.3935E+02  0.2499E+03
    -15.010  0.3942E+02  0.2504E+03
    -14.996  0.3949E+02  0.2510E+03
    -14.983  0.3955E+02  0.2515E+03
    -14.969  0.3961E+02  0.2521E+03
    -14.955  0.3965E+02  0.2526E+03
    -14.941  0.3968E+02  0.2532E+03
    -14.927  0.3970E+02  0.2537E+03
    -14.913  0.3970E+02  0.2543E+03
    -14.900  0.3969E+02  0.2548E+03
    -14.886  0.3966E+02  0.2554E+03
    -14.872  0.3962E+02  0.2559E+03
    -14.858  0.3956E+02  0.2564E+03
    -14.844  0.3949E+02  0.2570E+03
    -14.831  0.3941E+02  0.2575E+03
    -14.817  0.3932E+02  0.2581E+03
    -14.803  0.3923E+02  0.2586E+03
    -14.789  0.3913E+02  0.2592E+03
    -14.775  0.3904E+02  0.2597E+03
    -14.762  0.3895E+02  0.2602E+03
    -14.748  0.3887E+02  0.2608E+03
    -14.734  0.3880E+02  0.2613E+03
    -14.720  0.3874E+02  0.2618E+03
    -14.706  0.3870E+02  0.2624E+03
    -14.693  0.3868E+02  0.2629E+03
    -14.679  0.3867E+02  0.2634E+03
    -14.665  0.3868E+02  0.2640E+03
    -14.651  0.3870E+02  0.2645E+03
    -14.637  0.3873E+02  0.2651E+03
    -14.624  0.3877E+02  0.2656E+03
    -14.610  0.3882E+02  0.2661E+03
    -14.596  0.3886E+02  0.2667E+03
    -14.582  0.3890E+02  0.2672E+03
    -14.568  0.3892E+02  0.2677E+03
    -14.555  0.3894E+02  0.2683E+03
    -14.541  0.3893E+02  0.2688E+03
    -14.527  0.3891E+02  0.2693E+03
    -14.513  0.3886E+02  0.2699E+03
    -14.499  0.3878E+02  0.2704E+03
    -14.486  0.3868E+02  0.2709E+03
    -14.472  0.3855E+02  0.2715E+03
    -14.458  0.3840E+02  0.2720E+03
    -14.444  0.3822E+02  0.2725E+03
    -14.430  0.3803E+02  0.2731E+03
    -14.417  0.3783E+02  0.2736E+03
    -14.403  0.3761E+02  0.2741E+03
    -14.389  0.3740E+02  0.2746E+03
    -14.375  0.3718E+02  0.2751E+03
    -14.361  0.3698E+02  0.2756E+03
    -14.348  0.3678E+02  0.2762E+03
    -14.334  0.3661E+02  0.2767E+03
    -14.320  0.3645E+02  0.2772E+03
    -14.306  0.3632E+02  0.2777E+03
    -14.292  0.3622E+02  0.2782E+03
    -14.279  0.3614E+02  0.2787E+03
    -14.265  0.3609E+02  0.2792E+03
    -14.251  0.3607E+02  0.2797E+03
    -14.237  0.3608E+02  0.2802E+03
    -14.223  0.3611E+02  0.2807E+03
    -14.209  0.3616E+02  0.2812E+03
    -14.196  0.3622E+02  0.2817E+03
    -14.182  0.3631E+02  0.2822E+03
    -14.168  0.3640E+02  0.2827E+03
    -14.154  0.3650E+02  0.2832E+03
    -14.140  0.3661E+02  0.2837E+03
    -14.127  0.3672E+02  0.2842E+03
    -14.113  0.3683E+02  0.2847E+03
    -14.099  0.3694E+02  0.2852E+03
    -14.085  0.3704E+02  0.2857E+03
    -14.071  0.3713E+02  0.2862E+03
    -14.058  0.3721E+02  0.2867E+03
    -14.044  0.3728E+02  0.2872E+03
    -14.030  0.3733E+02  0.2878E+03
    -14.016  0.3738E+02  0.2883E+03
    -14.002  0.3740E+02  0.2888E+03
    -13.989  0.3741E+02  0.2893E+03
    -13.975  0.3740E+02  0.2898E+03
    -13.961  0.3737E+02  0.2903E+03
    -13.947  0.3732E+02  0.2909E+03
    -13.933  0.3725E+02  0.2914E+03
    -13.920  0.3716E+02  0.2919E+03
    -13.906  0.3706E+02  0.2924E+03
    -13.892  0.3694E+02  0.2929E+03
    -13.878  0.3680E+02  0.2934E+03
    -13.864  0.3664E+02  0.2939E+03
    -13.851  0.3648E+02  0.2944E+03
    -13.837  0.3630E+02  0.2949E+03
    -13.823  0.3612E+02  0.2954E+03
    -13.809  0.3593E+02  0.2959E+03
    -13.795  0.3573E+02  0.2964E+03
    -13.782  0.3554E+02  0.2969E+03
    -13.768  0.3535E+02  0.2974E+03
    -13.754  0.3516E+02  0.2979E+03
    -13.740  0.3499E+02  0.2984E+03
    -13.726  0.3482E+02  0.2988E+03
    -13.713  0.3466E+02  0.2993E+03
    -13.699  0.3452E+02  0.2998E+03
    -13.685  0.3440E+02  0.3003E+03
    -13.671  0.3431E+02  0.3007E+03
    -13.657  0.3423E+02  0.3012E+03
    -13.644  0.3419E+02  0.3017E+03
    -13.630  0.3417E+02  0.3022E+03
    -13.616  0.3420E+02  0.3026E+03
    -13.602  0.3425E+02  0.3031E+03
    -13.588  0.3435E+02  0.3036E+03
    -13.575  0.3449E+02  0.3041E+03
    -13.561  0.3467E+02  0.3045E+03
    -13.547  0.3489E+02  0.3050E+03
    -13.533  0.3515E+02  0.3055E+03
    -13.519  0.3546E+02  0.3060E+03
    -13.506  0.3580E+02  0.3065E+03
    -13.492  0.3617E+02  0.3070E+03
    -13.478  0.3658E+02  0.3075E+03
    -13.464  0.3700E+02  0.3080E+03
    -13.450  0.3745E+02  0.3085E+03
    -13.436  0.3790E+02  0.3090E+03
    -13.423  0.3835E+02  0.3096E+03
    -13.409  0.3879E+02  0.3101E+03
    -13.395  0.3923E+02  0.3106E+03
    -13.381  0.3963E+02  0.3112E+03
    -13.367  0.4001E+02  0.3117E+03
    -13.354  0.4036E+02  0.3123E+03
    -13.340  0.4066E+02  0.3129E+03
    -13.326  0.4092E+02  0.3134E+03
    -13.312  0.4113E+02  0.3140E+03
    -13.298  0.4130E+02  0.3146E+03
    -13.285  0.4141E+02  0.3151E+03
    -13.271  0.4147E+02  0.3157E+03
    -13.257  0.4148E+02  0.3163E+03
    -13.243  0.4145E+02  0.3169E+03
    -13.229  0.4139E+02  0.3174E+03
    -13.216  0.4129E+02  0.3180E+03
    -13.202  0.4116E+02  0.3186E+03
    -13.188  0.4101E+02  0.3191E+03
    -13.174  0.4086E+02  0.3197E+03
    -13.160  0.4070E+02  0.3203E+03
    -13.147  0.4054E+02  0.3208E+03
    -13.133  0.4039E+02  0.3214E+03
    -13.119  0.4025E+02  0.3219E+03
    -13.105  0.4014E+02  0.3225E+03