  91  91   0   0
  0.2763302E+02  0.1704000E-08  0.1475707E-08  0.1000000E-08  0.5000000E-15
  1.000000000000000E-004
  CAR 
 unknown system                          
      5.32383396    -24.21556488 2000     -1.52406085      1.00000000
    -24.216  0.0000E+00  0.0000E+00
    -24.201  0.0000E+00  0.0000E+00
    -24.186  0.0000E+00  0.0000E+00
    -24.171  0.0000E+00  0.0000E+00
    -24.156  0.0000E+00  0.0000E+00
    -24.142  0.0000E+00  0.0000E+00
    -24.127  0.0000E+00  0.0000E+00
    -24.112  0.0000E+00  0.0000E+00
    -24.097  0.0000E+00  0.0000E+00
    -24.083  0.0000E+00  0.0000E+00
    -24.068  0.0000E+00  0.0000E+00
    -24.053  0.0000E+00  0.0000E+00
    -24.038  0.0000E+00  0.0000E+00
    -24.023  0.0000E+00  0.0000E+00
    -24.009  0.0000E+00  0.0000E+00
    -23.994  0.0000E+00  0.0000E+00
    -23.979  0.0000E+00  0.0000E+00
    -23.964  0.0000E+00  0.0000E+00
    -23.950  0.0000E+00  0.0000E+00
    -23.935  0.0000E+00  0.0000E+00
    -23.920  0.0000E+00  0.0000E+00
    -23.905  0.0000E+00  0.0000E+00
    -23.890  0.0000E+00  0.0000E+00
    -23.876  0.0000E+00  0.0000E+00
    -23.861  0.0000E+00  0.0000E+00
    -23.846  0.0000E+00  0.0000E+00
    -23.831  0.0000E+00  0.0000E+00
    -23.817  0.0000E+00  0.0000E+00
    -23.802  0.0000E+00  0.0000E+00
    -23.787  0.0000E+00  0.0000E+00
    -23.772  0.0000E+00  0.0000E+00
    -23.757  0.0000E+00  0.0000E+00
    -23.743  0.0000E+00  0.0000E+00
    -23.728  0.0000E+00  0.0000E+00
    -23.713  0.0000E+00  0.0000E+00
    -23.698  0.0000E+00  0.0000E+00
    -23.684  0.0000E+00  0.0000E+00
    -23.669  0.0000E+00  0.0000E+00
    -23.654  0.0000E+00  0.0000E+00
    -23.639  0.0000E+00  0.0000E+00
    -23.624  0.0000E+00  0.0000E+00
    -23.610  0.0000E+00  0.0000E+00
    -23.595  0.0000E+00  0.0000E+00
    -23.580  0.0000E+00  0.0000E+00
    -23.565  0.0000E+00  0.0000E+00
    -23.551  0.0000E+00  0.0000E+00
    -23.536  0.0000E+00  0.0000E+00
    -23.521  0.0000E+00  0.0000E+00
    -23.506  0.0000E+00  0.0000E+00
    -23.491  0.0000E+00  0.0000E+00
    -23.477  0.0000E+00  0.0000E+00
    -23.462  0.0000E+00  0.0000E+00
    -23.447  0.0000E+00  0.0000E+00
    -23.432  0.0000E+00  0.0000E+00
    -23.418  0.0000E+00  0.0000E+00
    -23.403  0.0000E+00  0.0000E+00
    -23.388  0.7513E-14  0.1110E-15
    -23.373  0.7513E-14  0.2220E-15
    -23.358  0.2671E-13  0.6168E-15
    -23.344  0.5259E-13  0.1394E-14
    -23.329  0.1286E-12  0.3294E-14
    -23.314  0.2880E-12  0.7550E-14
    -23.299  0.6470E-12  0.1711E-13
    -23.285  0.1444E-11  0.3845E-13
    -23.270  0.3182E-11  0.8547E-13
    -23.255  0.6932E-11  0.1879E-12
    -23.240  0.1495E-10  0.4088E-12
    -23.225  0.3186E-10  0.8796E-12
    -23.211  0.6720E-10  0.1873E-11
    -23.196  0.1402E-09  0.3944E-11
    -23.181  0.2893E-09  0.8219E-11
    -23.166  0.5905E-09  0.1695E-10
    -23.152  0.1192E-08  0.3456E-10
    -23.137  0.2381E-08  0.6975E-10
    -23.122  0.4703E-08  0.1392E-09
    -23.107  0.9190E-08  0.2751E-09
    -23.093  0.1776E-07  0.5375E-09
    -23.078  0.3396E-07  0.1039E-08
    -23.063  0.6422E-07  0.1988E-08
    -23.048  0.1201E-06  0.3764E-08
    -23.033  0.2223E-06  0.7048E-08
    -23.019  0.4068E-06  0.1306E-07
    -23.004  0.7364E-06  0.2394E-07
    -22.989  0.1319E-05  0.4343E-07
    -22.974  0.2336E-05  0.7795E-07
    -22.960  0.4093E-05  0.1384E-06
    -22.945  0.7093E-05  0.2432E-06
    -22.930  0.1216E-04  0.4229E-06
    -22.915  0.2062E-04  0.7276E-06
    -22.900  0.3458E-04  0.1239E-05
    -22.886  0.5737E-04  0.2086E-05
    -22.871  0.9415E-04  0.3478E-05
    -22.856  0.1528E-03  0.5736E-05
    -22.841  0.2454E-03  0.9363E-05
    -22.827  0.3898E-03  0.1512E-04
    -22.812  0.6124E-03  0.2417E-04
    -22.797  0.9516E-03  0.3823E-04
    -22.782  0.1463E-02  0.5985E-04
    -22.767  0.2224E-02  0.9271E-04
    -22.753  0.3345E-02  0.1421E-03
    -22.738  0.4977E-02  0.2157E-03
    -22.723  0.7324E-02  0.3239E-03
    -22.708  0.1066E-01  0.4814E-03
    -22.694  0.1535E-01  0.7083E-03
    -22.679  0.2186E-01  0.1031E-02
    -22.664  0.3080E-01  0.1487E-02
    -22.649  0.4293E-01  0.2121E-02
    -22.634  0.5919E-01  0.2996E-02
    -22.620  0.8071E-01  0.4188E-02
    -22.605  0.1089E+00  0.5797E-02
    -22.590  0.1453E+00  0.7944E-02
    -22.575  0.1918E+00  0.1078E-01
    -22.561  0.2505E+00  0.1448E-01
    -22.546  0.3236E+00  0.1926E-01
    -22.531  0.4136E+00  0.2537E-01
    -22.516  0.5230E+00  0.3310E-01
    -22.501  0.6542E+00  0.4277E-01
    -22.487  0.8097E+00  0.5474E-01
    -22.472  0.9916E+00  0.6939E-01
    -22.457  0.1201E+01  0.8714E-01
    -22.442  0.1441E+01  0.1084E+00
    -22.428  0.1709E+01  0.1337E+00
    -22.413  0.2008E+01  0.1634E+00
    -22.398  0.2334E+01  0.1978E+00
    -22.383  0.2685E+01  0.2375E+00
    -22.368  0.3059E+01  0.2827E+00
    -22.354  0.3451E+01  0.3337E+00
    -22.339  0.3855E+01  0.3907E+00
    -22.324  0.4266E+01  0.4537E+00
    -22.309  0.4678E+01  0.5229E+00
    -22.295  0.5085E+01  0.5980E+00
    -22.280  0.5479E+01  0.6790E+00
    -22.265  0.5855E+01  0.7655E+00
    -22.250  0.6207E+01  0.8572E+00
    -22.235  0.6533E+01  0.9537E+00
    -22.221  0.6827E+01  0.1055E+01
    -22.206  0.7088E+01  0.1159E+01
    -22.191  0.7314E+01  0.1267E+01
    -22.176  0.7507E+01  0.1378E+01
    -22.162  0.7665E+01  0.1492E+01
    -22.147  0.7791E+01  0.1607E+01
    -22.132  0.7886E+01  0.1723E+01
    -22.117  0.7951E+01  0.1841E+01
    -22.102  0.7988E+01  0.1959E+01
    -22.088  0.7998E+01  0.2077E+01
    -22.073  0.7980E+01  0.2195E+01
    -22.058  0.7935E+01  0.2312E+01
    -22.043  0.7860E+01  0.2428E+01
    -22.029  0.7756E+01  0.2543E+01
    -22.014  0.7620E+01  0.2656E+01
    -21.999  0.7452E+01  0.2766E+01
    -21.984  0.7249E+01  0.2873E+01
    -21.969  0.7012E+01  0.2976E+01
    -21.955  0.6741E+01  0.3076E+01
    -21.940  0.6438E+01  0.3171E+01
    -21.925  0.6104E+01  0.3261E+01
    -21.910  0.5744E+01  0.3346E+01
    -21.896  0.5363E+01  0.3425E+01
    -21.881  0.4966E+01  0.3499E+01
    -21.866  0.4559E+01  0.3566E+01
    -21.851  0.4148E+01  0.3628E+01
    -21.836  0.3742E+01  0.3683E+01
    -21.822  0.3345E+01  0.3732E+01
    -21.807  0.2965E+01  0.3776E+01
    -21.792  0.2606E+01  0.3815E+01
    -21.777  0.2274E+01  0.3848E+01
    -21.763  0.1973E+01  0.3877E+01
    -21.748  0.1705E+01  0.3903E+01
    -21.733  0.1474E+01  0.3924E+01
    -21.718  0.1281E+01  0.3943E+01
    -21.703  0.1128E+01  0.3960E+01
    -21.689  0.1015E+01  0.3975E+01
    -21.674  0.9444E+00  0.3989E+01
    -21.659  0.9159E+00  0.4002E+01
    -21.644  0.9305E+00  0.4016E+01
    -21.630  0.9890E+00  0.4031E+01
    -21.615  0.1092E+01  0.4047E+01
    -21.600  0.1242E+01  0.4065E+01
    -21.585  0.1437E+01  0.4086E+01
    -21.570  0.1680E+01  0.4111E+01
    -21.556  0.1971E+01  0.4140E+01
    -21.541  0.2308E+01  0.4175E+01
    -21.526  0.2692E+01  0.4214E+01
    -21.511  0.3120E+01  0.4260E+01
    -21.497  0.3589E+01  0.4313E+01
    -21.482  0.4095E+01  0.4374E+01
    -21.467  0.4632E+01  0.4442E+01
    -21.452  0.5192E+01  0.4519E+01
    -21.437  0.5768E+01  0.4604E+01
    -21.423  0.6351E+01  0.4698E+01
    -21.408  0.6929E+01  0.4801E+01
    -21.393  0.7492E+01  0.4911E+01
    -21.378  0.8028E+01  0.5030E+01
    -21.364  0.8526E+01  0.5156E+01
    -21.349  0.8976E+01  0.5289E+01
    -21.334  0.9366E+01  0.5427E+01
    -21.319  0.9689E+01  0.5570E+01
    -21.304  0.9936E+01  0.5717E+01
    -21.290  0.1010E+02  0.5866E+01
    -21.275  0.1018E+02  0.6017E+01
    -21.260  0.1018E+02  0.6167E+01
    -21.245  0.1009E+02  0.6316E+01
    -21.231  0.9913E+01  0.6463E+01
    -21.216  0.9664E+01  0.6605E+01
    -21.201  0.9346E+01  0.6744E+01
    -21.186  0.8968E+01  0.6876E+01
    -21.171  0.8542E+01  0.7002E+01
    -21.157  0.8081E+01  0.7122E+01
    -21.142  0.7597E+01  0.7234E+01
    -21.127  0.7104E+01  0.7339E+01
    -21.112  0.6617E+01  0.7437E+01
    -21.098  0.6150E+01  0.7528E+01
    -21.083  0.5715E+01  0.7612E+01
    -21.068  0.5325E+01  0.7691E+01
    -21.053  0.4991E+01  0.7765E+01
    -21.038  0.4723E+01  0.7834E+01
    -21.024  0.4528E+01  0.7901E+01
    -21.009  0.4412E+01  0.7966E+01
    -20.994  0.4378E+01  0.8031E+01
    -20.979  0.4428E+01  0.8097E+01
    -20.965  0.4562E+01  0.8164E+01
    -20.950  0.4776E+01  0.8235E+01
    -20.935  0.5066E+01  0.8309E+01
    -20.920  0.5425E+01  0.8390E+01
    -20.905  0.5845E+01  0.8476E+01
    -20.891  0.6317E+01  0.8569E+01
    -20.876  0.6829E+01  0.8670E+01
    -20.861  0.7371E+01  0.8779E+01
    -20.846  0.7931E+01  0.8896E+01
    -20.832  0.8497E+01  0.9022E+01
    -20.817  0.9060E+01  0.9156E+01
    -20.802  0.9609E+01  0.9298E+01
    -20.787  0.1014E+02  0.9447E+01
    -20.773  0.1063E+02  0.9605E+01
    -20.758  0.1109E+02  0.9768E+01
    -20.743  0.1151E+02  0.9939E+01
    -20.728  0.1189E+02  0.1011E+02
    -20.713  0.1222E+02  0.1029E+02
    -20.699  0.1251E+02  0.1048E+02
    -20.684  0.1276E+02  0.1067E+02
    -20.669  0.1297E+02  0.1086E+02
    -20.654  0.1314E+02  0.1105E+02
    -20.640  0.1327E+02  0.1125E+02
    -20.625  0.1338E+02  0.1145E+02
    -20.610  0.1346E+02  0.1165E+02
    -20.595  0.1351E+02  0.1185E+02
    -20.580  0.1355E+02  0.1205E+02
    -20.566  0.1356E+02  0.1225E+02
    -20.551  0.1357E+02  0.1245E+02
    -20.536  0.1355E+02  0.1265E+02
    -20.521  0.1353E+02  0.1285E+02
    -20.507  0.1350E+02  0.1305E+02
    -20.492  0.1346E+02  0.1325E+02
    -20.477  0.1341E+02  0.1344E+02
    -20.462  0.1336E+02  0.1364E+02
    -20.447  0.1331E+02  0.1384E+02
    -20.433  0.1325E+02  0.1403E+02
    -20.418  0.1320E+02  0.1423E+02
    -20.403  0.1315E+02  0.1442E+02
    -20.388  0.1310E+02  0.1462E+02
    -20.374  0.1306E+02  0.1481E+02
    -20.359  0.1303E+02  0.1500E+02
    -20.344  0.1300E+02  0.1519E+02
    -20.329  0.1298E+02  0.1539E+02
    -20.314  0.1297E+02  0.1558E+02
    -20.300  0.1297E+02  0.1577E+02
    -20.285  0.1297E+02  0.1596E+02
    -20.270  0.1298E+02  0.1615E+02
    -20.255  0.1299E+02  0.1635E+02
    -20.241  0.1299E+02  0.1654E+02
    -20.226  0.1299E+02  0.1673E+02
    -20.211  0.1298E+02  0.1692E+02
    -20.196  0.1296E+02  0.1711E+02
    -20.181  0.1293E+02  0.1730E+02
    -20.167  0.1288E+02  0.1749E+02
    -20.152  0.1282E+02  0.1768E+02
    -20.137  0.1274E+02  0.1787E+02
    -20.122  0.1265E+02  0.1806E+02
    -20.108  0.1253E+02  0.1824E+02
    -20.093  0.1241E+02  0.1843E+02
    -20.078  0.1227E+02  0.1861E+02
    -20.063  0.1213E+02  0.1879E+02
    -20.048  0.1199E+02  0.1896E+02
    -20.034  0.1184E+02  0.1914E+02
    -20.019  0.1170E+02  0.1931E+02
    -20.004  0.1157E+02  0.1948E+02
    -19.989  0.1145E+02  0.1965E+02
    -19.975  0.1134E+02  0.1982E+02
    -19.960  0.1126E+02  0.1999E+02
    -19.945  0.1120E+02  0.2015E+02
    -19.930  0.1117E+02  0.2032E+02
    -19.915  0.1116E+02  0.2048E+02
    -19.901  0.1119E+02  0.2065E+02
    -19.886  0.1124E+02  0.2081E+02
    -19.871  0.1133E+02  0.2098E+02
    -19.856  0.1144E+02  0.2115E+02
    -19.842  0.1159E+02  0.2132E+02
    -19.827  0.1176E+02  0.2150E+02
    -19.812  0.1195E+02  0.2167E+02
    -19.797  0.1216E+02  0.2185E+02
    -19.782  0.1239E+02  0.2203E+02
    -19.768  0.1262E+02  0.2222E+02
    -19.753  0.1286E+02  0.2241E+02
    -19.738  0.1309E+02  0.2260E+02
    -19.723  0.1330E+02  0.2280E+02
    -19.709  0.1350E+02  0.2300E+02
    -19.694  0.1368E+02  0.2320E+02
    -19.679  0.1382E+02  0.2341E+02
    -19.664  0.1393E+02  0.2361E+02
    -19.649  0.1401E+02  0.2382E+02
    -19.635  0.1405E+02  0.2403E+02
    -19.620  0.1405E+02  0.2424E+02
    -19.605  0.1403E+02  0.2444E+02
    -19.590  0.1397E+02  0.2465E+02
    -19.576  0.1389E+02  0.2485E+02
    -19.561  0.1379E+02  0.2506E+02
    -19.546  0.1369E+02  0.2526E+02
    -19.531  0.1358E+02  0.2546E+02
    -19.516  0.1348E+02  0.2566E+02
    -19.502  0.1339E+02  0.2586E+02
    -19.487  0.1331E+02  0.2605E+02
    -19.472  0.1326E+02  0.2625E+02
    -19.457  0.1323E+02  0.2645E+02
    -19.443  0.1323E+02  0.2664E+02
    -19.428  0.1325E+02  0.2684E+02
    -19.413  0.1330E+02  0.2703E+02
    -19.398  0.1336E+02  0.2723E+02
    -19.383  0.1345E+02  0.2743E+02
    -19.369  0.1354E+02  0.2763E+02
    -19.354  0.1365E+02  0.2783E+02
    -19.339  0.1375E+02  0.2804E+02
    -19.324  0.1385E+02  0.2824E+02
    -19.310  0.1394E+02  0.2845E+02
    -19.295  0.1402E+02  0.2865E+02
    -19.280  0.1409E+02  0.2886E+02
    -19.265  0.1413E+02  0.2907E+02
    -19.250  0.1415E+02  0.2928E+02
    -19.236  0.1415E+02  0.2949E+02
    -19.221  0.1413E+02  0.2970E+02
    -19.206  0.1408E+02  0.2991E+02
    -19.191  0.1401E+02  0.3011E+02
    -19.177  0.1393E+02  0.3032E+02
    -19.162  0.1382E+02  0.3052E+02
    -19.147  0.1369E+02  0.3072E+02
    -19.132  0.1356E+02  0.3092E+02
    -19.117  0.1341E+02  0.3112E+02
    -19.103  0.1325E+02  0.3132E+02
    -19.088  0.1309E+02  0.3151E+02
    -19.073  0.1293E+02  0.3170E+02
    -19.058  0.1277E+02  0.3189E+02
    -19.044  0.1262E+02  0.3208E+02
    -19.029  0.1248E+02  0.3226E+02
    -19.014  0.1235E+02  0.3245E+02
    -18.999  0.1225E+02  0.3263E+02
    -18.984  0.1217E+02  0.3281E+02
    -18.970  0.1211E+02  0.3299E+02
    -18.955  0.1208E+02  0.3316E+02
    -18.940  0.1208E+02  0.3334E+02
    -18.925  0.1211E+02  0.3352E+02
    -18.911  0.1217E+02  0.3370E+02
    -18.896  0.1226E+02  0.3388E+02
    -18.881  0.1237E+02  0.3406E+02
    -18.866  0.1251E+02  0.3425E+02
    -18.851  0.1267E+02  0.3444E+02
    -18.837  0.1283E+02  0.3463E+02
    -18.822  0.1301E+02  0.3482E+02
    -18.807  0.1318E+02  0.3501E+02
    -18.792  0.1335E+02  0.3521E+02
    -18.778  0.1351E+02  0.3541E+02
    -18.763  0.1365E+02  0.3561E+02
    -18.748  0.1377E+02  0.3582E+02
    -18.733  0.1386E+02  0.3602E+02
    -18.718  0.1393E+02  0.3623E+02
    -18.704  0.1398E+02  0.3643E+02
    -18.689  0.1399E+02  0.3664E+02
    -18.674  0.1398E+02  0.3685E+02
    -18.659  0.1394E+02  0.3705E+02
    -18.645  0.1389E+02  0.3726E+02
    -18.630  0.1381E+02  0.3746E+02
    -18.615  0.1372E+02  0.3766E+02
    -18.600  0.1362E+02  0.3787E+02
    -18.585  0.1352E+02  0.3807E+02
    -18.571  0.1341E+02  0.3826E+02
    -18.556  0.1332E+02  0.3846E+02
    -18.541  0.1324E+02  0.3866E+02
    -18.526  0.1317E+02  0.3885E+02
    -18.512  0.1313E+02  0.3904E+02
    -18.497  0.1311E+02  0.3924E+02
    -18.482  0.1312E+02  0.3943E+02
    -18.467  0.1317E+02  0.3963E+02
    -18.453  0.1325E+02  0.3982E+02
    -18.438  0.1337E+02  0.4002E+02
    -18.423  0.1353E+02  0.4022E+02
    -18.408  0.1371E+02  0.4042E+02
    -18.393  0.1393E+02  0.4063E+02
    -18.379  0.1417E+02  0.4084E+02
    -18.364  0.1444E+02  0.4105E+02
    -18.349  0.1471E+02  0.4127E+02
    -18.334  0.1500E+02  0.4149E+02
    -18.320  0.1528E+02  0.4172E+02
    -18.305  0.1555E+02  0.4195E+02
    -18.290  0.1580E+02  0.4218E+02
    -18.275  0.1603E+02  0.4242E+02
    -18.260  0.1622E+02  0.4266E+02
    -18.246  0.1638E+02  0.4290E+02
    -18.231  0.1649E+02  0.4314E+02
    -18.216  0.1656E+02  0.4339E+02
    -18.201  0.1658E+02  0.4363E+02
    -18.187  0.1655E+02  0.4388E+02
    -18.172  0.1648E+02  0.4412E+02
    -18.157  0.1637E+02  0.4436E+02
    -18.142  0.1622E+02  0.4460E+02
    -18.127  0.1605E+02  0.4484E+02
    -18.113  0.1585E+02  0.4507E+02
    -18.098  0.1564E+02  0.4530E+02
    -18.083  0.1542E+02  0.4553E+02
    -18.068  0.1520E+02  0.4576E+02
    -18.054  0.1499E+02  0.4598E+02
    -18.039  0.1480E+02  0.4620E+02
    -18.024  0.1462E+02  0.4641E+02
    -18.009  0.1447E+02  0.4663E+02
    -17.994  0.1435E+02  0.4684E+02
    -17.980  0.1426E+02  0.4705E+02
    -17.965  0.1420E+02  0.4726E+02
    -17.950  0.1416E+02  0.4747E+02
    -17.935  0.1416E+02  0.4768E+02
    -17.921  0.1417E+02  0.4789E+02
    -17.906  0.1421E+02  0.4810E+02
    -17.891  0.1426E+02  0.4831E+02
    -17.876  0.1431E+02  0.4852E+02
    -17.861  0.1438E+02  0.4873E+02
    -17.847  0.1445E+02  0.4894E+02
    -17.832  0.1451E+02  0.4916E+02
    -17.817  0.1458E+02  0.4937E+02
    -17.802  0.1463E+02  0.4959E+02
    -17.788  0.1468E+02  0.4981E+02
    -17.773  0.1473E+02  0.5003E+02
    -17.758  0.1477E+02  0.5024E+02
    -17.743  0.1481E+02  0.5046E+02
    -17.728  0.1484E+02  0.5068E+02
    -17.714  0.1487E+02  0.5090E+02
    -17.699  0.1490E+02  0.5112E+02
    -17.684  0.1494E+02  0.5134E+02
    -17.669  0.1497E+02  0.5156E+02
    -17.655  0.1501E+02  0.5178E+02
    -17.640  0.1504E+02  0.5201E+02
    -17.625  0.1508E+02  0.5223E+02
    -17.610  0.1511E+02  0.5245E+02
    -17.595  0.1514E+02  0.5268E+02
    -17.581  0.1516E+02  0.5290E+02
    -17.566  0.1517E+02  0.5313E+02
    -17.551  0.1517E+02  0.5335E+02
    -17.536  0.1515E+02  0.5357E+02
    -17.522  0.1511E+02  0.5380E+02
    -17.507  0.1506E+02  0.5402E+02
    -17.492  0.1499E+02  0.5424E+02
    -17.477  0.1490E+02  0.5446E+02
    -17.462  0.1480E+02  0.5468E+02
    -17.448  0.1469E+02  0.5490E+02
    -17.433  0.1457E+02  0.5511E+02
    -17.418  0.1444E+02  0.5533E+02
    -17.403  0.1432E+02  0.5554E+02
    -17.389  0.1419E+02  0.5575E+02
    -17.374  0.1408E+02  0.5595E+02
    -17.359  0.1397E+02  0.5616E+02
    -17.344  0.1388E+02  0.5637E+02
    -17.329  0.1381E+02  0.5657E+02
    -17.315  0.1376E+02  0.5677E+02
    -17.300  0.1373E+02  0.5698E+02
    -17.285  0.1372E+02  0.5718E+02
    -17.270  0.1374E+02  0.5738E+02
    -17.256  0.1377E+02  0.5759E+02
    -17.241  0.1383E+02  0.5779E+02
    -17.226  0.1391E+02  0.5800E+02
    -17.211  0.1401E+02  0.5820E+02
    -17.196  0.1413E+02  0.5841E+02
    -17.182  0.1426E+02  0.5862E+02
    -17.167  0.1441E+02  0.5884E+02
    -17.152  0.1457E+02  0.5905E+02
    -17.137  0.1473E+02  0.5927E+02
    -17.123  0.1490E+02  0.5949E+02
    -17.108  0.1507E+02  0.5971E+02
    -17.093  0.1524E+02  0.5994E+02
    -17.078  0.1540E+02  0.6016E+02
    -17.063  0.1555E+02  0.6039E+02
    -17.049  0.1570E+02  0.6063E+02
    -17.034  0.1582E+02  0.6086E+02
    -17.019  0.1593E+02  0.6109E+02
    -17.004  0.1601E+02  0.6133E+02
    -16.990  0.1608E+02  0.6157E+02
    -16.975  0.1611E+02  0.6181E+02
    -16.960  0.1612E+02  0.6205E+02
    -16.945  0.1611E+02  0.6228E+02
    -16.930  0.1607E+02  0.6252E+02
    -16.916  0.1600E+02  0.6276E+02
    -16.901  0.1592E+02  0.6299E+02
    -16.886  0.1581E+02  0.6323E+02
    -16.871  0.1569E+02  0.6346E+02
    -16.857  0.1556E+02  0.6369E+02
    -16.842  0.1542E+02  0.6392E+02
    -16.827  0.1527E+02  0.6414E+02
    -16.812  0.1513E+02  0.6437E+02
    -16.797  0.1499E+02  0.6459E+02
    -16.783  0.1485E+02  0.6481E+02
    -16.768  0.1473E+02  0.6502E+02
    -16.753  0.1461E+02  0.6524E+02
    -16.738  0.1450E+02  0.6545E+02
    -16.724  0.1439E+02  0.6567E+02
    -16.709  0.1430E+02  0.6588E+02
    -16.694  0.1420E+02  0.6609E+02
    -16.679  0.1411E+02  0.6630E+02
    -16.664  0.1402E+02  0.6650E+02
    -16.650  0.1392E+02  0.6671E+02
    -16.635  0.1382E+02  0.6691E+02
    -16.620  0.1371E+02  0.6712E+02
    -16.605  0.1360E+02  0.6732E+02
    -16.591  0.1347E+02  0.6752E+02
    -16.576  0.1334E+02  0.6771E+02
    -16.561  0.1319E+02  0.6791E+02
    -16.546  0.1305E+02  0.6810E+02
    -16.531  0.1290E+02  0.6829E+02
    -16.517  0.1275E+02  0.6848E+02
    -16.502  0.1260E+02  0.6867E+02
    -16.487  0.1246E+02  0.6885E+02
    -16.472  0.1233E+02  0.6903E+02
    -16.458  0.1221E+02  0.6921E+02
    -16.443  0.1212E+02  0.6939E+02
    -16.428  0.1204E+02  0.6957E+02
    -16.413  0.1199E+02  0.6975E+02
    -16.398  0.1196E+02  0.6992E+02
    -16.384  0.1195E+02  0.7010E+02
    -16.369  0.1198E+02  0.7028E+02
    -16.354  0.1203E+02  0.7045E+02
    -16.339  0.1211E+02  0.7063E+02
    -16.325  0.1221E+02  0.7081E+02
    -16.310  0.1233E+02  0.7100E+02
    -16.295  0.1248E+02  0.7118E+02
    -16.280  0.1264E+02  0.7137E+02
    -16.265  0.1282E+02  0.7156E+02
    -16.251  0.1301E+02  0.7175E+02
    -16.236  0.1321E+02  0.7194E+02
    -16.221  0.1341E+02  0.7214E+02
    -16.206  0.1361E+02  0.7234E+02
    -16.192  0.1380E+02  0.7255E+02
    -16.177  0.1399E+02  0.7275E+02
    -16.162  0.1416E+02  0.7296E+02
    -16.147  0.1433E+02  0.7318E+02
    -16.132  0.1447E+02  0.7339E+02
    -16.118  0.1460E+02  0.7360E+02
    -16.103  0.1470E+02  0.7382E+02
    -16.088  0.1478E+02  0.7404E+02
    -16.073  0.1483E+02  0.7426E+02
    -16.059  0.1486E+02  0.7448E+02
    -16.044  0.1487E+02  0.7470E+02
    -16.029  0.1486E+02  0.7492E+02
    -16.014  0.1482E+02  0.7514E+02
    -16.000  0.1476E+02  0.7536E+02
    -15.985  0.1469E+02  0.7557E+02
    -15.970  0.1460E+02  0.7579E+02
    -15.955  0.1450E+02  0.7600E+02
    -15.940  0.1440E+02  0.7622E+02
    -15.926  0.1429E+02  0.7643E+02
    -15.911  0.1418E+02  0.7664E+02
    -15.896  0.1407E+02  0.7684E+02
    -15.881  0.1397E+02  0.7705E+02
    -15.867  0.1387E+02  0.7726E+02
    -15.852  0.1379E+02  0.7746E+02
    -15.837  0.1372E+02  0.7766E+02
    -15.822  0.1366E+02  0.7786E+02
    -15.807  0.1362E+02  0.7807E+02
    -15.793  0.1359E+02  0.7827E+02
    -15.778  0.1358E+02  0.7847E+02
    -15.763  0.1358E+02  0.7867E+02
    -15.748  0.1360E+02  0.7887E+02
    -15.734  0.1362E+02  0.7907E+02
    -15.719  0.1366E+02  0.7927E+02
    -15.704  0.1370E+02  0.7947E+02
    -15.689  0.1375E+02  0.7968E+02
    -15.674  0.1380E+02  0.7988E+02
    -15.660  0.1385E+02  0.8009E+02
    -15.645  0.1390E+02  0.8029E+02
    -15.630  0.1394E+02  0.8050E+02
    -15.615  0.1398E+02  0.8070E+02
    -15.601  0.1401E+02  0.8091E+02
    -15.586  0.1403E+02  0.8112E+02
    -15.571  0.1404E+02  0.8133E+02
    -15.556  0.1404E+02  0.8153E+02
    -15.541  0.1403E+02  0.8174E+02
    -15.527  0.1401E+02  0.8195E+02
    -15.512  0.1398E+02  0.8215E+02
    -15.497  0.1395E+02  0.8236E+02
    -15.482  0.1392E+02  0.8257E+02
    -15.468  0.1388E+02  0.8277E+02
    -15.453  0.1383E+02  0.8298E+02
    -15.438  0.1379E+02  0.8318E+02
    -15.423  0.1375E+02  0.8338E+02
    -15.408  0.1371E+02  0.8358E+02
    -15.394  0.1367E+02  0.8379E+02
    -15.379  0.1363E+02  0.8399E+02
    -15.364  0.1359E+02  0.8419E+02
    -15.349  0.1355E+02  0.8439E+02
    -15.335  0.1351E+02  0.8459E+02
    -15.320  0.1347E+02  0.8479E+02
    -15.305  0.1342E+02  0.8499E+02
    -15.290  0.1337E+02  0.8518E+02
    -15.275  0.1332E+02  0.8538E+02
    -15.261  0.1326E+02  0.8558E+02
    -15.246  0.1320E+02  0.8577E+02
    -15.231  0.1314E+02  0.8597E+02
    -15.216  0.1308E+02  0.8616E+02
    -15.202  0.1302E+02  0.8635E+02
    -15.187  0.1295E+02  0.8654E+02
    -15.172  0.1288E+02  0.8673E+02
    -15.157  0.1282E+02  0.8692E+02
    -15.142  0.1275E+02  0.8711E+02
    -15.128  0.1268E+02  0.8730E+02
    -15.113  0.1262E+02  0.8748E+02
    -15.098  0.1256E+02  0.8767E+02
    -15.083  0.1249E+02  0.8786E+02
    -15.069  0.1244E+02  0.8804E+02
    -15.054  0.1238E+02  0.8822E+02
    -15.039  0.1234E+02  0.8840E+02
    -15.024  0.1230E+02  0.8859E+02
    -15.009  0.1227E+02  0.8877E+02
    -14.995  0.1225E+02  0.8895E+02
    -14.980  0.1225E+02  0.8913E+02
    -14.965  0.1227E+02  0.8931E+02
    -14.950  0.1230E+02  0.8949E+02
    -14.936  0.1236E+02  0.8968E+02
    -14.921  0.1243E+02  0.8986E+02
    -14.906  0.1253E+02  0.9004E+02
    -14.891  0.1265E+02  0.9023E+02
    -14.876  0.1278E+02  0.9042E+02
    -14.862  0.1294E+02  0.9061E+02
    -14.847  0.1310E+02  0.9080E+02
    -14.832  0.1328E+02  0.9100E+02
    -14.817  0.1347E+02  0.9120E+02
    -14.803  0.1366E+02  0.9140E+02
    -14.788  0.1386E+02  0.9161E+02
    -14.773  0.1404E+02  0.9181E+02
    -14.758  0.1423E+02  0.9202E+02
    -14.743  0.1440E+02  0.9224E+02
    -14.729  0.1456E+02  0.9245E+02
    -14.714  0.1471E+02  0.9267E+02
    -14.699  0.1485E+02  0.9289E+02
    -14.684  0.1497E+02  0.9311E+02
    -14.670  0.1509E+02  0.9333E+02
    -14.655  0.1519E+02  0.9356E+02
    -14.640  0.1528E+02  0.9378E+02
    -14.625  0.1537E+02  0.9401E+02
    -14.610  0.1544E+02  0.9424E+02
    -14.596  0.1551E+02  0.9447E+02
    -14.581  0.1558E+02  0.9470E+02
    -14.566  0.1564E+02  0.9493E+02
    -14.551  0.1570E+02  0.9516E+02
    -14.537  0.1575E+02  0.9539E+02
    -14.522  0.1580E+02  0.9563E+02
    -14.507  0.1585E+02  0.9586E+02
    -14.492  0.1590E+02  0.9610E+02
    -14.477  0.1594E+02  0.9633E+02
    -14.463  0.1599E+02  0.9657E+02
    -14.448  0.1603E+02  0.9681E+02
    -14.433  0.1608E+02  0.9704E+02
    -14.418  0.1613E+02  0.9728E+02
    -14.404  0.1618E+02  0.9752E+02
    -14.389  0.1624E+02  0.9776E+02
    -14.374  0.1631E+02  0.9800E+02
    -14.359  0.1638E+02  0.9824E+02
    -14.344  0.1646E+02  0.9849E+02
    -14.330  0.1654E+02  0.9873E+02
    -14.315  0.1662E+02  0.9898E+02
    -14.300  0.1669E+02  0.9922E+02
    -14.285  0.1676E+02  0.9947E+02
    -14.271  0.1681E+02  0.9972E+02
    -14.256  0.1684E+02  0.9997E+02
    -14.241  0.1684E+02  0.1002E+03
    -14.226  0.1682E+02  0.1005E+03
    -14.211  0.1676E+02  0.1007E+03
    -14.197  0.1666E+02  0.1010E+03
    -14.182  0.1653E+02  0.1012E+03
    -14.167  0.1636E+02  0.1014E+03
    -14.152  0.1615E+02  0.1017E+03
    -14.138  0.1592E+02  0.1019E+03
    -14.123  0.1567E+02  0.1022E+03
    -14.108  0.1540E+02  0.1024E+03
    -14.093  0.1513E+02  0.1026E+03
    -14.078  0.1486E+02  0.1028E+03
    -14.064  0.1461E+02  0.1030E+03
    -14.049  0.1439E+02  0.1033E+03
    -14.034  0.1421E+02  0.1035E+03
    -14.019  0.1407E+02  0.1037E+03
    -14.005  0.1398E+02  0.1039E+03
    -13.990  0.1396E+02  0.1041E+03
    -13.975  0.1399E+02  0.1043E+03
    -13.960  0.1407E+02  0.1045E+03
    -13.945  0.1422E+02  0.1047E+03
    -13.931  0.1441E+02  0.1049E+03
    -13.916  0.1464E+02  0.1051E+03
    -13.901  0.1490E+02  0.1054E+03
    -13.886  0.1519E+02  0.1056E+03
    -13.872  0.1548E+02  0.1058E+03
    -13.857  0.1577E+02  0.1060E+03
    -13.842  0.1605E+02  0.1063E+03
    -13.827  0.1630E+02  0.1065E+03
    -13.812  0.1653E+02  0.1068E+03
    -13.798  0.1672E+02  0.1070E+03
    -13.783  0.1687E+02  0.1073E+03
    -13.768  0.1698E+02  0.1075E+03
    -13.753  0.1706E+02  0.1078E+03
    -13.739  0.1709E+02  0.1080E+03
    -13.724  0.1710E+02  0.1083E+03
    -13.709  0.1708E+02  0.1085E+03
    -13.694  0.1705E+02  0.1088E+03
    -13.680  0.1699E+02  0.1090E+03
    -13.665  0.1694E+02  0.1093E+03
    -13.650  0.1687E+02  0.1095E+03
    -13.635  0.1681E+02  0.1098E+03
    -13.620  0.1675E+02  0.1100E+03
    -13.606  0.1670E+02  0.1103E+03
    -13.591  0.1664E+02  0.1105E+03
    -13.576  0.1659E+02  0.1108E+03
    -13.561  0.1653E+02  0.1110E+03
    -13.547  0.1647E+02  0.1112E+03
    -13.532  0.1641E+02  0.1115E+03
    -13.517  0.1633E+02  0.1117E+03
    -13.502  0.1624E+02  0.1120E+03
    -13.487  0.1613E+02  0.1122E+03
    -13.473  0.1601E+02  0.1124E+03
    -13.458  0.1587E+02  0.1127E+03
    -13.443  0.1573E+02  0.1129E+03
    -13.428  0.1557E+02  0.1131E+03
    -13.414  0.1541E+02  0.1134E+03
    -13.399  0.1524E+02  0.1136E+03
    -13.384  0.1508E+02  0.1138E+03
    -13.369  0.1493E+02  0.1140E+03
    -13.354  0.1480E+02  0.1143E+03
    -13.340  0.1468E+02  0.1145E+03
    -13.325  0.1458E+02  0.1147E+03
    -13.310  0.1451E+02  0.1149E+03
    -13.295  0.1447E+02  0.1151E+03
    -13.281  0.1446E+02  0.1153E+03
    -13.266  0.1448E+02  0.1155E+03
    -13.251  0.1452E+02  0.1158E+03
    -13.236  0.1459E+02  0.1160E+03
    -13.221  0.1469E+02  0.1162E+03
    -13.207  0.1480E+02  0.1164E+03
    -13.192  0.1493E+02  0.1166E+03
    -13.177  0.1507E+02  0.1169E+03
    -13.162  0.1521E+02  0.1171E+03
    -13.148  0.1534E+02  0.1173E+03
    -13.133  0.1546E+02  0.1175E+03
    -13.118  0.1557E+02  0.1178E+03
    -13.103  0.1565E+02  0.1180E+03
    -13.088  0.1570E+02  0.1182E+03
    -13.074  0.1571E+02  0.1185E+03
    -13.059  0.1569E+02  0.1187E+03
    -13.044  0.1562E+02  0.1189E+03
    -13.029  0.1551E+02  0.1192E+03
    -13.015  0.1536E+02  0.1194E+03
    -13.000  0.1516E+02  0.1196E+03
    -12.985  0.1493E+02  0.1198E+03
    -12.970  0.1466E+02  0.1200E+03
    -12.955  0.1436E+02  0.1203E+03
    -12.941  0.1404E+02  0.1205E+03
    -12.926  0.1370E+02  0.1207E+03
    -12.911  0.1335E+02  0.1209E+03
    -12.896  0.1300E+02  0.1211E+03
    -12.882  0.1266E+02  0.1212E+03
    -12.867  0.1233E+02  0.1214E+03
    -12.852  0.1202E+02  0.1216E+03
    -12.837  0.1174E+02  0.1218E+03
    -12.822  0.1148E+02  0.1219E+03
    -12.808  0.1127E+02  0.1221E+03
    -12.793  0.1110E+02  0.1223E+03
    -12.778  0.1096E+02  0.1224E+03
    -12.763  0.1088E+02  0.1226E+03
    -12.749  0.1083E+02  0.1228E+03
    -12.734  0.1083E+02  0.1229E+03
    -12.719  0.1087E+02  0.1231E+03
    -12.704  0.1095E+02  0.1232E+03
    -12.689  0.1107E+02  0.1234E+03
    -12.675  0.1122E+02  0.1236E+03
    -12.660  0.1140E+02  0.1237E+03
    -12.645  0.1161E+02  0.1239E+03
    -12.630  0.1184E+02  0.1241E+03
    -12.616  0.1208E+02  0.1243E+03
    -12.601  0.1235E+02  0.1244E+03
    -12.586  0.1262E+02  0.1246E+03
    -12.571  0.1289E+02  0.1248E+03
    -12.556  0.1317E+02  0.1250E+03
    -12.542  0.1345E+02  0.1252E+03
    -12.527  0.1372E+02  0.1254E+03
    -12.512  0.1397E+02  0.1256E+03
    -12.497  0.1422E+02  0.1258E+03
    -12.483  0.1445E+02  0.1260E+03
    -12.468  0.1466E+02  0.1263E+03
    -12.453  0.1485E+02  0.1265E+03
    -12.438  0.1502E+02  0.1267E+03
    -12.423  0.1517E+02  0.1269E+03
    -12.409  0.1530E+02  0.1272E+03
    -12.394  0.1540E+02  0.1274E+03
    -12.379  0.1549E+02  0.1276E+03
    -12.364  0.1555E+02  0.1278E+03
    -12.350  0.1560E+02  0.1281E+03
    -12.335  0.1563E+02  0.1283E+03
    -12.320  0.1565E+02  0.1285E+03
    -12.305  0.1566E+02  0.1288E+03
    -12.290  0.1565E+02  0.1290E+03
    -12.276  0.1564E+02  0.1292E+03
    -12.261  0.1563E+02  0.1295E+03
    -12.246  0.1561E+02  0.1297E+03
    -12.231  0.1559E+02  0.1299E+03
    -12.217  0.1557E+02  0.1301E+03
    -12.202  0.1556E+02  0.1304E+03
    -12.187  0.1555E+02  0.1306E+03
    -12.172  0.1554E+02  0.1308E+03
    -12.157  0.1554E+02  0.1311E+03
    -12.143  0.1555E+02  0.1313E+03
    -12.128  0.1556E+02  0.1315E+03
    -12.113  0.1557E+02  0.1318E+03
    -12.098  0.1559E+02  0.1320E+03
    -12.084  0.1561E+02  0.1322E+03
    -12.069  0.1564E+02  0.1324E+03
    -12.054  0.1566E+02  0.1327E+03
    -12.039  0.1569E+02  0.1329E+03
    -12.024  0.1572E+02  0.1331E+03