 250 250   0   0
  0.2640335E+02  0.2982000E-08  0.2213561E-08  0.1000000E-08  0.5000000E-15
  1.000000000000000E-004
  CAR 
 unknown system                          
      6.16155437    -24.59329004 2000     -1.07086747      1.00000000
    -24.593  0.0000E+00  0.0000E+00
    -24.578  0.0000E+00  0.0000E+00
    -24.563  0.0000E+00  0.0000E+00
    -24.547  0.0000E+00  0.0000E+00
    -24.532  0.0000E+00  0.0000E+00
    -24.516  0.0000E+00  0.0000E+00
    -24.501  0.0000E+00  0.0000E+00
    -24.486  0.0000E+00  0.0000E+00
    -24.470  0.0000E+00  0.0000E+00
    -24.455  0.0000E+00  0.0000E+00
    -24.439  0.0000E+00  0.0000E+00
    -24.424  0.0000E+00  0.0000E+00
    -24.409  0.0000E+00  0.0000E+00
    -24.393  0.0000E+00  0.0000E+00
    -24.378  0.0000E+00  0.0000E+00
    -24.363  0.0000E+00  0.0000E+00
    -24.347  0.0000E+00  0.0000E+00
    -24.332  0.0000E+00  0.0000E+00
    -24.316  0.0000E+00  0.0000E+00
    -24.301  0.0000E+00  0.0000E+00
    -24.286  0.0000E+00  0.0000E+00
    -24.270  0.0000E+00  0.0000E+00
    -24.255  0.0000E+00  0.0000E+00
    -24.239  0.0000E+00  0.0000E+00
    -24.224  0.0000E+00  0.0000E+00
    -24.209  0.0000E+00  0.0000E+00
    -24.193  0.0000E+00  0.0000E+00
    -24.178  0.0000E+00  0.0000E+00
    -24.163  0.0000E+00  0.0000E+00
    -24.147  0.0000E+00  0.0000E+00
    -24.132  0.0000E+00  0.0000E+00
    -24.116  0.0000E+00  0.0000E+00
    -24.101  0.0000E+00  0.0000E+00
    -24.086  0.0000E+00  0.0000E+00
    -24.070  0.0000E+00  0.0000E+00
    -24.055  0.0000E+00  0.0000E+00
    -24.039  0.0000E+00  0.0000E+00
    -24.024  0.0000E+00  0.0000E+00
    -24.009  0.0000E+00  0.0000E+00
    -23.993  0.0000E+00  0.0000E+00
    -23.978  0.0000E+00  0.0000E+00
    -23.963  0.0000E+00  0.0000E+00
    -23.947  0.0000E+00  0.0000E+00
    -23.932  0.0000E+00  0.0000E+00
    -23.916  0.0000E+00  0.0000E+00
    -23.901  0.0000E+00  0.0000E+00
    -23.886  0.0000E+00  0.0000E+00
    -23.870  0.0000E+00  0.0000E+00
    -23.855  0.0000E+00  0.0000E+00
    -23.839  0.0000E+00  0.0000E+00
    -23.824  0.0000E+00  0.0000E+00
    -23.809  0.0000E+00  0.0000E+00
    -23.793  0.0000E+00  0.0000E+00
    -23.778  0.0000E+00  0.0000E+00
    -23.762  0.7216E-14  0.1110E-15
    -23.747  0.1443E-13  0.3331E-15
    -23.732  0.2886E-13  0.7772E-15
    -23.716  0.7938E-13  0.1998E-14
    -23.701  0.1804E-12  0.4774E-14
    -23.686  0.4258E-12  0.1132E-13
    -23.670  0.9814E-12  0.2642E-13
    -23.655  0.2244E-11  0.6095E-13
    -23.639  0.5080E-11  0.1391E-12
    -23.624  0.1134E-10  0.3136E-12
    -23.609  0.2505E-10  0.6990E-12
    -23.593  0.5466E-10  0.1540E-11
    -23.578  0.1179E-09  0.3353E-11
    -23.562  0.2512E-09  0.7218E-11
    -23.547  0.5290E-09  0.1536E-10
    -23.532  0.1101E-08  0.3230E-10
    -23.516  0.2265E-08  0.6714E-10
    -23.501  0.4604E-08  0.1380E-09
    -23.486  0.9248E-08  0.2803E-09
    -23.470  0.1836E-07  0.5627E-09
    -23.455  0.3602E-07  0.1117E-08
    -23.439  0.6983E-07  0.2191E-08
    -23.424  0.1338E-06  0.4250E-08
    -23.409  0.2533E-06  0.8148E-08
    -23.393  0.4741E-06  0.1544E-07
    -23.378  0.8767E-06  0.2893E-07
    -23.362  0.1602E-05  0.5358E-07
    -23.347  0.2893E-05  0.9809E-07
    -23.332  0.5164E-05  0.1775E-06
    -23.316  0.9109E-05  0.3177E-06
    -23.301  0.1588E-04  0.5620E-06
    -23.286  0.2735E-04  0.9827E-06
    -23.270  0.4656E-04  0.1699E-05
    -23.255  0.7833E-04  0.2904E-05
    -23.239  0.1302E-03  0.4908E-05
    -23.224  0.2140E-03  0.8200E-05
    -23.209  0.3474E-03  0.1354E-04
    -23.193  0.5575E-03  0.2212E-04
    -23.178  0.8840E-03  0.3572E-04
    -23.162  0.1385E-02  0.5704E-04
    -23.147  0.2146E-02  0.9004E-04
    -23.132  0.3284E-02  0.1406E-03
    -23.116  0.4967E-02  0.2170E-03
    -23.101  0.7424E-02  0.3312E-03
    -23.086  0.1097E-01  0.4999E-03
    -23.070  0.1601E-01  0.7462E-03
    -23.055  0.2309E-01  0.1102E-02
    -23.039  0.3293E-01  0.1608E-02
    -23.024  0.4639E-01  0.2322E-02
    -23.009  0.6459E-01  0.3316E-02
    -22.993  0.8888E-01  0.4683E-02
    -22.978  0.1209E+00  0.6542E-02
    -22.962  0.1624E+00  0.9041E-02
    -22.947  0.2157E+00  0.1236E-01
    -22.932  0.2831E+00  0.1672E-01
    -22.916  0.3672E+00  0.2236E-01
    -22.901  0.4706E+00  0.2961E-01
    -22.886  0.5962E+00  0.3878E-01
    -22.870  0.7463E+00  0.5026E-01
    -22.855  0.9232E+00  0.6446E-01
    -22.839  0.1129E+01  0.8183E-01
    -22.824  0.1364E+01  0.1028E+00
    -22.809  0.1628E+01  0.1279E+00
    -22.793  0.1921E+01  0.1574E+00
    -22.778  0.2240E+01  0.1919E+00
    -22.762  0.2582E+01  0.2316E+00
    -22.747  0.2940E+01  0.2768E+00
    -22.732  0.3309E+01  0.3278E+00
    -22.716  0.3680E+01  0.3844E+00
    -22.701  0.4045E+01  0.4466E+00
    -22.686  0.4394E+01  0.5142E+00
    -22.670  0.4717E+01  0.5868E+00
    -22.655  0.5004E+01  0.6638E+00
    -22.639  0.5246E+01  0.7445E+00
    -22.624  0.5435E+01  0.8281E+00
    -22.609  0.5565E+01  0.9137E+00
    -22.593  0.5631E+01  0.1000E+01
    -22.578  0.5631E+01  0.1087E+01
    -22.562  0.5564E+01  0.1173E+01
    -22.547  0.5434E+01  0.1256E+01
    -22.532  0.5244E+01  0.1337E+01
    -22.516  0.5002E+01  0.1414E+01
    -22.501  0.4714E+01  0.1486E+01
    -22.486  0.4391E+01  0.1554E+01
    -22.470  0.4042E+01  0.1616E+01
    -22.455  0.3677E+01  0.1673E+01
    -22.439  0.3306E+01  0.1724E+01
    -22.424  0.2937E+01  0.1769E+01
    -22.409  0.2579E+01  0.1808E+01
    -22.393  0.2238E+01  0.1843E+01
    -22.378  0.1919E+01  0.1872E+01
    -22.362  0.1627E+01  0.1897E+01
    -22.347  0.1363E+01  0.1918E+01
    -22.332  0.1129E+01  0.1936E+01
    -22.316  0.9254E+00  0.1950E+01
    -22.301  0.7506E+00  0.1962E+01
    -22.286  0.6035E+00  0.1971E+01
    -22.270  0.4821E+00  0.1978E+01
    -22.255  0.3845E+00  0.1984E+01
    -22.239  0.3084E+00  0.1989E+01
    -22.224  0.2521E+00  0.1993E+01
    -22.209  0.2138E+00  0.1996E+01
    -22.193  0.1923E+00  0.1999E+01
    -22.178  0.1870E+00  0.2002E+01
    -22.162  0.1977E+00  0.2005E+01
    -22.147  0.2247E+00  0.2008E+01
    -22.132  0.2689E+00  0.2013E+01
    -22.116  0.3316E+00  0.2018E+01
    -22.101  0.4147E+00  0.2024E+01
    -22.086  0.5202E+00  0.2032E+01
    -22.070  0.6501E+00  0.2042E+01
    -22.055  0.8066E+00  0.2054E+01
    -22.039  0.9915E+00  0.2070E+01
    -22.024  0.1206E+01  0.2088E+01
    -22.009  0.1451E+01  0.2111E+01
    -21.993  0.1726E+01  0.2137E+01
    -21.978  0.2030E+01  0.2168E+01
    -21.962  0.2361E+01  0.2205E+01
    -21.947  0.2713E+01  0.2246E+01
    -21.932  0.3083E+01  0.2294E+01
    -21.916  0.3464E+01  0.2347E+01
    -21.901  0.3848E+01  0.2406E+01
    -21.886  0.4227E+01  0.2471E+01
    -21.870  0.4593E+01  0.2542E+01
    -21.855  0.4938E+01  0.2618E+01
    -21.839  0.5254E+01  0.2699E+01
    -21.824  0.5534E+01  0.2784E+01
    -21.809  0.5772E+01  0.2873E+01
    -21.793  0.5967E+01  0.2965E+01
    -21.778  0.6117E+01  0.3059E+01
    -21.762  0.6222E+01  0.3154E+01
    -21.747  0.6286E+01  0.3251E+01
    -21.732  0.6315E+01  0.3348E+01
    -21.716  0.6315E+01  0.3446E+01
    -21.701  0.6295E+01  0.3542E+01
    -21.686  0.6262E+01  0.3639E+01
    -21.670  0.6225E+01  0.3734E+01
    -21.655  0.6192E+01  0.3830E+01
    -21.639  0.6169E+01  0.3925E+01
    -21.624  0.6159E+01  0.4019E+01
    -21.609  0.6167E+01  0.4114E+01
    -21.593  0.6190E+01  0.4210E+01
    -21.578  0.6228E+01  0.4305E+01
    -21.562  0.6276E+01  0.4402E+01
    -21.547  0.6329E+01  0.4499E+01
    -21.532  0.6380E+01  0.4597E+01
    -21.516  0.6421E+01  0.4696E+01
    -21.501  0.6448E+01  0.4795E+01
    -21.485  0.6453E+01  0.4895E+01
    -21.470  0.6434E+01  0.4994E+01
    -21.455  0.6388E+01  0.5092E+01
    -21.439  0.6316E+01  0.5189E+01
    -21.424  0.6222E+01  0.5285E+01
    -21.409  0.6109E+01  0.5379E+01
    -21.393  0.5986E+01  0.5471E+01
    -21.378  0.5862E+01  0.5561E+01
    -21.362  0.5745E+01  0.5650E+01
    -21.347  0.5647E+01  0.5736E+01
    -21.332  0.5577E+01  0.5822E+01
    -21.316  0.5544E+01  0.5907E+01
    -21.301  0.5557E+01  0.5993E+01
    -21.285  0.5621E+01  0.6079E+01
    -21.270  0.5741E+01  0.6168E+01
    -21.255  0.5917E+01  0.6259E+01
    -21.239  0.6152E+01  0.6353E+01
    -21.224  0.6442E+01  0.6453E+01
    -21.209  0.6784E+01  0.6557E+01
    -21.193  0.7175E+01  0.6667E+01
    -21.178  0.7610E+01  0.6784E+01
    -21.162  0.8085E+01  0.6909E+01
    -21.147  0.8595E+01  0.7041E+01
    -21.132  0.9137E+01  0.7182E+01
    -21.116  0.9709E+01  0.7331E+01
    -21.101  0.1031E+02  0.7490E+01
    -21.085  0.1094E+02  0.7658E+01
    -21.070  0.1160E+02  0.7836E+01
    -21.055  0.1228E+02  0.8025E+01
    -21.039  0.1300E+02  0.8225E+01
    -21.024  0.1376E+02  0.8437E+01
    -21.009  0.1455E+02  0.8661E+01
    -20.993  0.1537E+02  0.8897E+01
    -20.978  0.1622E+02  0.9147E+01
    -20.962  0.1710E+02  0.9410E+01
    -20.947  0.1802E+02  0.9687E+01
    -20.932  0.1895E+02  0.9979E+01
    -20.916  0.1990E+02  0.1028E+02
    -20.901  0.2085E+02  0.1061E+02
    -20.885  0.2181E+02  0.1094E+02
    -20.870  0.2276E+02  0.1129E+02
    -20.855  0.2369E+02  0.1166E+02
    -20.839  0.2459E+02  0.1203E+02
    -20.824  0.2546E+02  0.1243E+02
    -20.809  0.2629E+02  0.1283E+02
    -20.793  0.2707E+02  0.1325E+02
    -20.778  0.2780E+02  0.1367E+02
    -20.762  0.2848E+02  0.1411E+02
    -20.747  0.2909E+02  0.1456E+02
    -20.732  0.2965E+02  0.1502E+02
    -20.716  0.3015E+02  0.1548E+02
    -20.701  0.3060E+02  0.1595E+02
    -20.685  0.3100E+02  0.1643E+02
    -20.670  0.3135E+02  0.1691E+02
    -20.655  0.3165E+02  0.1740E+02
    -20.639  0.3192E+02  0.1789E+02
    -20.624  0.3216E+02  0.1838E+02
    -20.609  0.3237E+02  0.1888E+02
    -20.593  0.3257E+02  0.1938E+02
    -20.578  0.3275E+02  0.1989E+02
    -20.562  0.3293E+02  0.2039E+02
    -20.547  0.3311E+02  0.2090E+02
    -20.532  0.3329E+02  0.2141E+02
    -20.516  0.3347E+02  0.2193E+02
    -20.501  0.3366E+02  0.2245E+02
    -20.485  0.3387E+02  0.2297E+02
    -20.470  0.3408E+02  0.2349E+02
    -20.455  0.3431E+02  0.2402E+02
    -20.439  0.3454E+02  0.2455E+02
    -20.424  0.3479E+02  0.2509E+02
    -20.409  0.3504E+02  0.2563E+02
    -20.393  0.3529E+02  0.2617E+02
    -20.378  0.3553E+02  0.2672E+02
    -20.362  0.3577E+02  0.2727E+02
    -20.347  0.3601E+02  0.2782E+02
    -20.332  0.3623E+02  0.2838E+02
    -20.316  0.3643E+02  0.2894E+02
    -20.301  0.3661E+02  0.2950E+02
    -20.285  0.3677E+02  0.3007E+02
    -20.270  0.3691E+02  0.3063E+02
    -20.255  0.3702E+02  0.3120E+02
    -20.239  0.3711E+02  0.3178E+02
    -20.224  0.3717E+02  0.3235E+02
    -20.209  0.3722E+02  0.3292E+02
    -20.193  0.3725E+02  0.3349E+02
    -20.178  0.3726E+02  0.3407E+02
    -20.162  0.3727E+02  0.3464E+02
    -20.147  0.3727E+02  0.3521E+02
    -20.132  0.3727E+02  0.3579E+02
    -20.116  0.3728E+02  0.3636E+02
    -20.101  0.3730E+02  0.3693E+02
    -20.085  0.3733E+02  0.3751E+02
    -20.070  0.3738E+02  0.3808E+02
    -20.055  0.3745E+02  0.3866E+02
    -20.039  0.3753E+02  0.3924E+02
    -20.024  0.3764E+02  0.3982E+02
    -20.009  0.3776E+02  0.4040E+02
    -19.993  0.3789E+02  0.4098E+02
    -19.978  0.3803E+02  0.4156E+02
    -19.962  0.3817E+02  0.4215E+02
    -19.947  0.3831E+02  0.4274E+02
    -19.932  0.3844E+02  0.4333E+02
    -19.916  0.3856E+02  0.4393E+02
    -19.901  0.3866E+02  0.4452E+02
    -19.885  0.3874E+02  0.4512E+02
    -19.870  0.3879E+02  0.4571E+02
    -19.855  0.3881E+02  0.4631E+02
    -19.839  0.3880E+02  0.4691E+02
    -19.824  0.3877E+02  0.4750E+02
    -19.809  0.3872E+02  0.4810E+02
    -19.793  0.3864E+02  0.4869E+02
    -19.778  0.3854E+02  0.4929E+02
    -19.762  0.3844E+02  0.4988E+02
    -19.747  0.3832E+02  0.5047E+02
    -19.732  0.3820E+02  0.5106E+02
    -19.716  0.3809E+02  0.5164E+02
    -19.701  0.3798E+02  0.5223E+02
    -19.685  0.3788E+02  0.5281E+02
    -19.670  0.3779E+02  0.5339E+02
    -19.655  0.3772E+02  0.5397E+02
    -19.639  0.3767E+02  0.5455E+02
    -19.624  0.3763E+02  0.5513E+02
    -19.609  0.3761E+02  0.5571E+02
    -19.593  0.3760E+02  0.5629E+02
    -19.578  0.3761E+02  0.5687E+02
    -19.562  0.3762E+02  0.5744E+02
    -19.547  0.3764E+02  0.5802E+02
    -19.532  0.3766E+02  0.5860E+02
    -19.516  0.3769E+02  0.5918E+02
    -19.501  0.3771E+02  0.5976E+02
    -19.485  0.3773E+02  0.6034E+02
    -19.470  0.3774E+02  0.6092E+02
    -19.455  0.3775E+02  0.6150E+02
    -19.439  0.3775E+02  0.6209E+02
    -19.424  0.3775E+02  0.6267E+02
    -19.409  0.3774E+02  0.6325E+02
    -19.393  0.3773E+02  0.6383E+02
    -19.378  0.3771E+02  0.6441E+02
    -19.362  0.3769E+02  0.6499E+02
    -19.347  0.3768E+02  0.6557E+02
    -19.332  0.3766E+02  0.6615E+02
    -19.316  0.3765E+02  0.6673E+02
    -19.301  0.3764E+02  0.6730E+02
    -19.285  0.3763E+02  0.6788E+02
    -19.270  0.3763E+02  0.6846E+02
    -19.255  0.3764E+02  0.6904E+02
    -19.239  0.3764E+02  0.6962E+02
    -19.224  0.3766E+02  0.7020E+02
    -19.208  0.3768E+02  0.7078E+02
    -19.193  0.3770E+02  0.7136E+02
    -19.178  0.3773E+02  0.7194E+02
    -19.162  0.3776E+02  0.7252E+02
    -19.147  0.3779E+02  0.7310E+02
    -19.132  0.3783E+02  0.7368E+02
    -19.116  0.3787E+02  0.7427E+02
    -19.101  0.3791E+02  0.7485E+02
    -19.085  0.3794E+02  0.7543E+02
    -19.070  0.3798E+02  0.7602E+02
    -19.055  0.3802E+02  0.7660E+02
    -19.039  0.3805E+02  0.7719E+02
    -19.024  0.3808E+02  0.7777E+02
    -19.008  0.3811E+02  0.7836E+02
    -18.993  0.3814E+02  0.7895E+02
    -18.978  0.3817E+02  0.7954E+02
    -18.962  0.3819E+02  0.8012E+02
    -18.947  0.3822E+02  0.8071E+02
    -18.932  0.3824E+02  0.8130E+02
    -18.916  0.3827E+02  0.8189E+02
    -18.901  0.3829E+02  0.8248E+02
    -18.885  0.3832E+02  0.8307E+02
    -18.870  0.3835E+02  0.8366E+02
    -18.855  0.3837E+02  0.8425E+02
    -18.839  0.3840E+02  0.8484E+02
    -18.824  0.3843E+02  0.8543E+02
    -18.808  0.3845E+02  0.8602E+02
    -18.793  0.3848E+02  0.8661E+02
    -18.778  0.3851E+02  0.8721E+02
    -18.762  0.3853E+02  0.8780E+02
    -18.747  0.3855E+02  0.8839E+02
    -18.732  0.3857E+02  0.8898E+02
    -18.716  0.3858E+02  0.8958E+02
    -18.701  0.3859E+02  0.9017E+02
    -18.685  0.3860E+02  0.9077E+02
    -18.670  0.3860E+02  0.9136E+02
    -18.655  0.3859E+02  0.9195E+02
    -18.639  0.3858E+02  0.9255E+02
    -18.624  0.3856E+02  0.9314E+02
    -18.608  0.3854E+02  0.9373E+02
    -18.593  0.3850E+02  0.9433E+02
    -18.578  0.3845E+02  0.9492E+02
    -18.562  0.3840E+02  0.9551E+02
    -18.547  0.3834E+02  0.9610E+02
    -18.532  0.3827E+02  0.9669E+02
    -18.516  0.3820E+02  0.9727E+02
    -18.501  0.3813E+02  0.9786E+02
    -18.485  0.3806E+02  0.9845E+02
    -18.470  0.3800E+02  0.9903E+02
    -18.455  0.3795E+02  0.9961E+02
    -18.439  0.3791E+02  0.1002E+03
    -18.424  0.3789E+02  0.1008E+03
    -18.408  0.3790E+02  0.1014E+03
    -18.393  0.3793E+02  0.1019E+03
    -18.378  0.3799E+02  0.1025E+03
    -18.362  0.3807E+02  0.1031E+03
    -18.347  0.3818E+02  0.1037E+03
    -18.332  0.3832E+02  0.1043E+03
    -18.316  0.3849E+02  0.1049E+03
    -18.301  0.3867E+02  0.1055E+03
    -18.285  0.3887E+02  0.1061E+03
    -18.270  0.3909E+02  0.1067E+03
    -18.255  0.3931E+02  0.1073E+03
    -18.239  0.3953E+02  0.1079E+03
    -18.224  0.3975E+02  0.1085E+03
    -18.208  0.3997E+02  0.1091E+03
    -18.193  0.4017E+02  0.1097E+03
    -18.178  0.4036E+02  0.1104E+03
    -18.162  0.4053E+02  0.1110E+03
    -18.147  0.4067E+02  0.1116E+03
    -18.132  0.4079E+02  0.1122E+03
    -18.116  0.4089E+02  0.1129E+03
    -18.101  0.4096E+02  0.1135E+03
    -18.085  0.4101E+02  0.1141E+03
    -18.070  0.4103E+02  0.1148E+03
    -18.055  0.4102E+02  0.1154E+03
    -18.039  0.4100E+02  0.1160E+03
    -18.024  0.4096E+02  0.1166E+03
    -18.008  0.4090E+02  0.1173E+03
    -17.993  0.4083E+02  0.1179E+03
    -17.978  0.4075E+02  0.1185E+03
    -17.962  0.4067E+02  0.1192E+03
    -17.947  0.4058E+02  0.1198E+03
    -17.932  0.4049E+02  0.1204E+03
    -17.916  0.4040E+02  0.1210E+03
    -17.901  0.4031E+02  0.1216E+03
    -17.885  0.4022E+02  0.1223E+03
    -17.870  0.4014E+02  0.1229E+03
    -17.855  0.4006E+02  0.1235E+03
    -17.839  0.3999E+02  0.1241E+03
    -17.824  0.3992E+02  0.1247E+03
    -17.808  0.3985E+02  0.1253E+03
    -17.793  0.3979E+02  0.1260E+03
    -17.778  0.3972E+02  0.1266E+03
    -17.762  0.3966E+02  0.1272E+03
    -17.747  0.3960E+02  0.1278E+03
    -17.732  0.3954E+02  0.1284E+03
    -17.716  0.3949E+02  0.1290E+03
    -17.701  0.3943E+02  0.1296E+03
    -17.685  0.3937E+02  0.1302E+03
    -17.670  0.3932E+02  0.1308E+03
    -17.655  0.3926E+02  0.1314E+03
    -17.639  0.3922E+02  0.1320E+03
    -17.624  0.3917E+02  0.1326E+03
    -17.608  0.3913E+02  0.1332E+03
    -17.593  0.3910E+02  0.1338E+03
    -17.578  0.3907E+02  0.1344E+03
    -17.562  0.3905E+02  0.1350E+03
    -17.547  0.3904E+02  0.1356E+03
    -17.532  0.3904E+02  0.1362E+03
    -17.516  0.3904E+02  0.1368E+03
    -17.501  0.3905E+02  0.1374E+03
    -17.485  0.3907E+02  0.1380E+03
    -17.470  0.3909E+02  0.1386E+03
    -17.455  0.3911E+02  0.1392E+03
    -17.439  0.3914E+02  0.1398E+03
    -17.424  0.3916E+02  0.1404E+03
    -17.408  0.3919E+02  0.1411E+03
    -17.393  0.3922E+02  0.1417E+03
    -17.378  0.3925E+02  0.1423E+03
    -17.362  0.3928E+02  0.1429E+03
    -17.347  0.3932E+02  0.1435E+03
    -17.332  0.3936E+02  0.1441E+03
    -17.316  0.3942E+02  0.1447E+03
    -17.301  0.3949E+02  0.1453E+03
    -17.285  0.3957E+02  0.1459E+03
    -17.270  0.3967E+02  0.1465E+03
    -17.255  0.3979E+02  0.1471E+03
    -17.239  0.3993E+02  0.1477E+03
    -17.224  0.4008E+02  0.1483E+03
    -17.208  0.4025E+02  0.1490E+03
    -17.193  0.4044E+02  0.1496E+03
    -17.178  0.4063E+02  0.1502E+03
    -17.162  0.4083E+02  0.1508E+03
    -17.147  0.4103E+02  0.1515E+03
    -17.132  0.4122E+02  0.1521E+03
    -17.116  0.4140E+02  0.1527E+03
    -17.101  0.4156E+02  0.1534E+03
    -17.085  0.4170E+02  0.1540E+03
    -17.070  0.4181E+02  0.1547E+03
    -17.055  0.4189E+02  0.1553E+03
    -17.039  0.4193E+02  0.1560E+03
    -17.024  0.4195E+02  0.1566E+03
    -17.008  0.4193E+02  0.1572E+03
    -16.993  0.4188E+02  0.1579E+03
    -16.978  0.4182E+02  0.1585E+03
    -16.962  0.4173E+02  0.1592E+03
    -16.947  0.4164E+02  0.1598E+03
    -16.932  0.4154E+02  0.1605E+03
    -16.916  0.4144E+02  0.1611E+03
    -16.901  0.4136E+02  0.1617E+03
    -16.885  0.4128E+02  0.1624E+03
    -16.870  0.4123E+02  0.1630E+03
    -16.855  0.4121E+02  0.1636E+03
    -16.839  0.4120E+02  0.1643E+03
    -16.824  0.4123E+02  0.1649E+03
    -16.808  0.4129E+02  0.1655E+03
    -16.793  0.4137E+02  0.1662E+03
    -16.778  0.4147E+02  0.1668E+03
    -16.762  0.4159E+02  0.1675E+03
    -16.747  0.4173E+02  0.1681E+03
    -16.731  0.4187E+02  0.1687E+03
    -16.716  0.4202E+02  0.1694E+03
    -16.701  0.4218E+02  0.1700E+03
    -16.685  0.4233E+02  0.1707E+03
    -16.670  0.4247E+02  0.1713E+03
    -16.655  0.4260E+02  0.1720E+03
    -16.639  0.4271E+02  0.1727E+03
    -16.624  0.4281E+02  0.1733E+03
    -16.608  0.4289E+02  0.1740E+03
    -16.593  0.4295E+02  0.1746E+03
    -16.578  0.4299E+02  0.1753E+03
    -16.562  0.4302E+02  0.1760E+03
    -16.547  0.4303E+02  0.1766E+03
    -16.531  0.4304E+02  0.1773E+03
    -16.516  0.4303E+02  0.1779E+03
    -16.501  0.4302E+02  0.1786E+03
    -16.485  0.4302E+02  0.1793E+03
    -16.470  0.4301E+02  0.1799E+03
    -16.455  0.4302E+02  0.1806E+03
    -16.439  0.4304E+02  0.1813E+03
    -16.424  0.4308E+02  0.1819E+03
    -16.408  0.4313E+02  0.1826E+03
    -16.393  0.4319E+02  0.1832E+03
    -16.378  0.4328E+02  0.1839E+03
    -16.362  0.4337E+02  0.1846E+03
    -16.347  0.4347E+02  0.1852E+03
    -16.331  0.4357E+02  0.1859E+03
    -16.316  0.4366E+02  0.1866E+03
    -16.301  0.4375E+02  0.1873E+03
    -16.285  0.4382E+02  0.1879E+03
    -16.270  0.4387E+02  0.1886E+03
    -16.255  0.4389E+02  0.1893E+03
    -16.239  0.4388E+02  0.1900E+03
    -16.224  0.4384E+02  0.1906E+03
    -16.208  0.4377E+02  0.1913E+03
    -16.193  0.4367E+02  0.1920E+03
    -16.178  0.4355E+02  0.1926E+03
    -16.162  0.4340E+02  0.1933E+03
    -16.147  0.4323E+02  0.1940E+03
    -16.131  0.4305E+02  0.1946E+03
    -16.116  0.4288E+02  0.1953E+03
    -16.101  0.4271E+02  0.1960E+03
    -16.085  0.4256E+02  0.1966E+03
    -16.070  0.4243E+02  0.1973E+03
    -16.055  0.4233E+02  0.1979E+03
    -16.039  0.4227E+02  0.1986E+03
    -16.024  0.4224E+02  0.1992E+03
    -16.008  0.4226E+02  0.1999E+03
    -15.993  0.4232E+02  0.2005E+03
    -15.978  0.4242E+02  0.2012E+03
    -15.962  0.4256E+02  0.2018E+03
    -15.947  0.4273E+02  0.2025E+03
    -15.931  0.4293E+02  0.2031E+03
    -15.916  0.4315E+02  0.2038E+03
    -15.901  0.4338E+02  0.2045E+03
    -15.885  0.4362E+02  0.2051E+03
    -15.870  0.4384E+02  0.2058E+03
    -15.855  0.4405E+02  0.2065E+03
    -15.839  0.4423E+02  0.2072E+03
    -15.824  0.4438E+02  0.2079E+03
    -15.808  0.4450E+02  0.2085E+03
    -15.793  0.4456E+02  0.2092E+03
    -15.778  0.4458E+02  0.2099E+03
    -15.762  0.4456E+02  0.2106E+03
    -15.747  0.4448E+02  0.2113E+03
    -15.731  0.4435E+02  0.2120E+03
    -15.716  0.4417E+02  0.2127E+03
    -15.701  0.4396E+02  0.2133E+03
    -15.685  0.4370E+02  0.2140E+03
    -15.670  0.4341E+02  0.2147E+03
    -15.655  0.4309E+02  0.2153E+03
    -15.639  0.4274E+02  0.2160E+03
    -15.624  0.4237E+02  0.2166E+03
    -15.608  0.4198E+02  0.2173E+03
    -15.593  0.4158E+02  0.2179E+03
    -15.578  0.4117E+02  0.2186E+03
    -15.562  0.4074E+02  0.2192E+03
    -15.547  0.4031E+02  0.2198E+03
    -15.531  0.3987E+02  0.2204E+03
    -15.516  0.3942E+02  0.2210E+03
    -15.501  0.3897E+02  0.2216E+03
    -15.485  0.3851E+02  0.2222E+03
    -15.470  0.3805E+02  0.2228E+03
    -15.455  0.3758E+02  0.2234E+03
    -15.439  0.3711E+02  0.2240E+03
    -15.424  0.3663E+02  0.2245E+03
    -15.408  0.3616E+02  0.2251E+03
    -15.393  0.3570E+02  0.2256E+03
    -15.378  0.3523E+02  0.2262E+03
    -15.362  0.3478E+02  0.2267E+03
    -15.347  0.3434E+02  0.2272E+03
    -15.331  0.3391E+02  0.2277E+03
    -15.316  0.3350E+02  0.2283E+03
    -15.301  0.3310E+02  0.2288E+03
    -15.285  0.3273E+02  0.2293E+03
    -15.270  0.3238E+02  0.2298E+03
    -15.255  0.3206E+02  0.2303E+03
    -15.239  0.3176E+02  0.2308E+03
    -15.224  0.3148E+02  0.2312E+03
    -15.208  0.3122E+02  0.2317E+03
    -15.193  0.3099E+02  0.2322E+03
    -15.178  0.3077E+02  0.2327E+03
    -15.162  0.3057E+02  0.2331E+03
    -15.147  0.3038E+02  0.2336E+03
    -15.131  0.3020E+02  0.2341E+03
    -15.116  0.3003E+02  0.2345E+03
    -15.101  0.2987E+02  0.2350E+03
    -15.085  0.2971E+02  0.2355E+03
    -15.070  0.2955E+02  0.2359E+03
    -15.055  0.2940E+02  0.2364E+03
    -15.039  0.2925E+02  0.2368E+03
    -15.024  0.2910E+02  0.2373E+03
    -15.008  0.2896E+02  0.2377E+03
    -14.993  0.2883E+02  0.2381E+03
    -14.978  0.2871E+02  0.2386E+03
    -14.962  0.2861E+02  0.2390E+03
    -14.947  0.2852E+02  0.2395E+03
    -14.931  0.2845E+02  0.2399E+03
    -14.916  0.2842E+02  0.2403E+03
    -14.901  0.2841E+02  0.2408E+03
    -14.885  0.2844E+02  0.2412E+03
    -14.870  0.2850E+02  0.2417E+03
    -14.855  0.2860E+02  0.2421E+03
    -14.839  0.2874E+02  0.2425E+03
    -14.824  0.2892E+02  0.2430E+03
    -14.808  0.2914E+02  0.2434E+03
    -14.793  0.2940E+02  0.2439E+03
    -14.778  0.2969E+02  0.2443E+03
    -14.762  0.3002E+02  0.2448E+03
    -14.747  0.3038E+02  0.2453E+03
    -14.731  0.3076E+02  0.2457E+03
    -14.716  0.3116E+02  0.2462E+03
    -14.701  0.3159E+02  0.2467E+03
    -14.685  0.3202E+02  0.2472E+03
    -14.670  0.3247E+02  0.2477E+03
    -14.655  0.3292E+02  0.2482E+03
    -14.639  0.3338E+02  0.2487E+03
    -14.624  0.3385E+02  0.2492E+03
    -14.608  0.3431E+02  0.2498E+03
    -14.593  0.3477E+02  0.2503E+03
    -14.578  0.3524E+02  0.2508E+03
    -14.562  0.3570E+02  0.2514E+03
    -14.547  0.3615E+02  0.2520E+03
    -14.531  0.3659E+02  0.2525E+03
    -14.516  0.3703E+02  0.2531E+03
    -14.501  0.3746E+02  0.2537E+03
    -14.485  0.3787E+02  0.2542E+03
    -14.470  0.3826E+02  0.2548E+03
    -14.454  0.3864E+02  0.2554E+03
    -14.439  0.3900E+02  0.2560E+03
    -14.424  0.3934E+02  0.2566E+03
    -14.408  0.3966E+02  0.2572E+03
    -14.393  0.3997E+02  0.2579E+03
    -14.378  0.4026E+02  0.2585E+03
    -14.362  0.4054E+02  0.2591E+03
    -14.347  0.4080E+02  0.2597E+03
    -14.331  0.4106E+02  0.2604E+03
    -14.316  0.4131E+02  0.2610E+03
    -14.301  0.4155E+02  0.2616E+03
    -14.285  0.4179E+02  0.2623E+03
    -14.270  0.4203E+02  0.2629E+03
    -14.254  0.4226E+02  0.2636E+03
    -14.239  0.4249E+02  0.2642E+03
    -14.224  0.4270E+02  0.2649E+03
    -14.208  0.4291E+02  0.2655E+03
    -14.193  0.4311E+02  0.2662E+03
    -14.178  0.4328E+02  0.2669E+03
    -14.162  0.4344E+02  0.2675E+03
    -14.147  0.4358E+02  0.2682E+03
    -14.131  0.4369E+02  0.2689E+03
    -14.116  0.4378E+02  0.2696E+03
    -14.101  0.4385E+02  0.2702E+03
    -14.085  0.4389E+02  0.2709E+03
    -14.070  0.4391E+02  0.2716E+03
    -14.054  0.4392E+02  0.2723E+03
    -14.039  0.4391E+02  0.2729E+03
    -14.024  0.4390E+02  0.2736E+03
    -14.008  0.4388E+02  0.2743E+03
    -13.993  0.4387E+02  0.2750E+03
    -13.978  0.4388E+02  0.2756E+03
    -13.962  0.4390E+02  0.2763E+03
    -13.947  0.4394E+02  0.2770E+03
    -13.931  0.4401E+02  0.2777E+03
    -13.916  0.4410E+02  0.2783E+03
    -13.901  0.4422E+02  0.2790E+03
    -13.885  0.4437E+02  0.2797E+03
    -13.870  0.4454E+02  0.2804E+03
    -13.854  0.4473E+02  0.2811E+03
    -13.839  0.4494E+02  0.2818E+03
    -13.824  0.4515E+02  0.2825E+03
    -13.808  0.4536E+02  0.2832E+03
    -13.793  0.4556E+02  0.2839E+03
    -13.778  0.4575E+02  0.2846E+03
    -13.762  0.4591E+02  0.2853E+03
    -13.747  0.4605E+02  0.2860E+03
    -13.731  0.4614E+02  0.2867E+03
    -13.716  0.4620E+02  0.2874E+03
    -13.701  0.4622E+02  0.2881E+03
    -13.685  0.4619E+02  0.2888E+03
    -13.670  0.4611E+02  0.2895E+03
    -13.654  0.4599E+02  0.2902E+03
    -13.639  0.4584E+02  0.2909E+03
    -13.624  0.4564E+02  0.2917E+03
    -13.608  0.4541E+02  0.2923E+03
    -13.593  0.4516E+02  0.2930E+03
    -13.578  0.4489E+02  0.2937E+03
    -13.562  0.4461E+02  0.2944E+03
    -13.547  0.4431E+02  0.2951E+03
    -13.531  0.4402E+02  0.2958E+03
    -13.516  0.4374E+02  0.2965E+03
    -13.501  0.4346E+02  0.2971E+03
    -13.485  0.4320E+02  0.2978E+03
    -13.470  0.4296E+02  0.2984E+03
    -13.454  0.4274E+02  0.2991E+03
    -13.439  0.4254E+02  0.2998E+03
    -13.424  0.4237E+02  0.3004E+03
    -13.408  0.4222E+02  0.3011E+03
    -13.393  0.4209E+02  0.3017E+03
    -13.378  0.4199E+02  0.3024E+03
    -13.362  0.4190E+02  0.3030E+03
    -13.347  0.4183E+02  0.3036E+03
    -13.331  0.4178E+02  0.3043E+03
    -13.316  0.4173E+02  0.3049E+03
    -13.301  0.4169E+02  0.3056E+03
    -13.285  0.4165E+02  0.3062E+03
    -13.270  0.4160E+02  0.3068E+03
    -13.254  0.4156E+02  0.3075E+03
    -13.239  0.4150E+02  0.3081E+03
    -13.224  0.4144E+02  0.3088E+03
    -13.208  0.4136E+02  0.3094E+03
    -13.193  0.4127E+02  0.3100E+03
    -13.178  0.4117E+02  0.3107E+03
    -13.162  0.4105E+02  0.3113E+03
    -13.147  0.4092E+02  0.3119E+03
    -13.131  0.4079E+02  0.3126E+03
    -13.116  0.4064E+02  0.3132E+03
    -13.101  0.4049E+02  0.3138E+03
    -13.085  0.4034E+02  0.3144E+03
    -13.070  0.4020E+02  0.3150E+03
    -13.054  0.4006E+02  0.3157E+03
    -13.039  0.3993E+02  0.3163E+03
    -13.024  0.3983E+02  0.3169E+03
    -13.008  0.3974E+02  0.3175E+03
    -12.993  0.3968E+02  0.3181E+03
    -12.978  0.3965E+02  0.3187E+03
    -12.962  0.3966E+02  0.3193E+03
    -12.947  0.3969E+02  0.3199E+03
    -12.931  0.3976E+02  0.3206E+03
    -12.916  0.3986E+02  0.3212E+03
    -12.901  0.3999E+02  0.3218E+03
    -12.885  0.4015E+02  0.3224E+03
    -12.870  0.4032E+02  0.3230E+03
    -12.854  0.4051E+02  0.3236E+03
    -12.839  0.4070E+02  0.3243E+03
    -12.824  0.4088E+02  0.3249E+03
    -12.808  0.4106E+02  0.3255E+03
    -12.793  0.4121E+02  0.3262E+03
    -12.778  0.4133E+02  0.3268E+03
    -12.762  0.4141E+02  0.3274E+03
    -12.747  0.4145E+02  0.3281E+03
    -12.731  0.4144E+02  0.3287E+03
    -12.716  0.4137E+02  0.3293E+03
    -12.701  0.4126E+02  0.3300E+03
    -12.685  0.4109E+02  0.3306E+03
    -12.670  0.4086E+02  0.3312E+03
    -12.654  0.4059E+02  0.3319E+03
    -12.639  0.4028E+02  0.3325E+03
    -12.624  0.3994E+02  0.3331E+03
    -12.608  0.3956E+02  0.3337E+03
    -12.593  0.3916E+02  0.3343E+03
    -12.578  0.3875E+02  0.3349E+03
    -12.562  0.3834E+02  0.3355E+03
    -12.547  0.3792E+02  0.3361E+03
    -12.531  0.3752E+02  0.3367E+03
    -12.516  0.3714E+02  0.3372E+03
    -12.501  0.3679E+02  0.3378E+03
    -12.485  0.3646E+02  0.3384E+03
    -12.470  0.3617E+02  0.3389E+03
    -12.454  0.3592E+02  0.3395E+03
    -12.439  0.3571E+02  0.3400E+03
    -12.424  0.3555E+02  0.3406E+03
    -12.408  0.3544E+02  0.3411E+03
    -12.393  0.3537E+02  0.3417E+03
    -12.378  0.3535E+02  0.3422E+03
    -12.362  0.3538E+02  0.3427E+03
    -12.347  0.3544E+02  0.3433E+03
    -12.331  0.3555E+02  0.3438E+03
    -12.316  0.3570E+02  0.3444E+03
    -12.301  0.3588E+02  0.3449E+03
    -12.285  0.3608E+02  0.3455E+03
    -12.270  0.3632E+02  0.3460E+03
    -12.254  0.3657E+02  0.3466E+03
    -12.239  0.3685E+02  0.3472E+03
    -12.224  0.3714E+02  0.3478E+03
    -12.208  0.3744E+02  0.3483E+03
    -12.193  0.3774E+02  0.3489E+03
    -12.178  0.3805E+02  0.3495E+03
    -12.162  0.3837E+02  0.3501E+03
    -12.147  0.3868E+02  0.3507E+03
    -12.131  0.3900E+02  0.3513E+03
    -12.116  0.3931E+02  0.3519E+03
    -12.101  0.3962E+02  0.3525E+03
    -12.085  0.3993E+02  0.3531E+03
    -12.070  0.4023E+02  0.3537E+03
    -12.054  0.4053E+02  0.3543E+03
    -12.039  0.4082E+02  0.3550E+03
    -12.024  0.4111E+02  0.3556E+03
    -12.008  0.4139E+02  0.3562E+03
    -11.993  0.4166E+02  0.3569E+03
    -11.977  0.4192E+02  0.3575E+03
    -11.962  0.4216E+02  0.3582E+03
    -11.947  0.4239E+02  0.3588E+03
    -11.931  0.4261E+02  0.3595E+03
    -11.916  0.4281E+02  0.3601E+03
    -11.901  0.4299E+02  0.3608E+03