  95  95   0   0
  0.5544837E+02  0.1743917E-08  0.1510277E-08  0.2000000E-08  0.5000000E-15
  1.000000000000000E-004
  CAR 
 unknown system                          
      3.70642995    -24.28183302 2000     -3.44471059      1.00000000
    -24.282  0.0000E+00  0.0000E+00
    -24.268  0.0000E+00  0.0000E+00
    -24.254  0.0000E+00  0.0000E+00
    -24.240  0.0000E+00  0.0000E+00
    -24.226  0.0000E+00  0.0000E+00
    -24.212  0.0000E+00  0.0000E+00
    -24.198  0.0000E+00  0.0000E+00
    -24.184  0.0000E+00  0.0000E+00
    -24.170  0.0000E+00  0.0000E+00
    -24.156  0.0000E+00  0.0000E+00
    -24.142  0.0000E+00  0.0000E+00
    -24.128  0.0000E+00  0.0000E+00
    -24.114  0.0000E+00  0.0000E+00
    -24.100  0.0000E+00  0.0000E+00
    -24.086  0.0000E+00  0.0000E+00
    -24.072  0.0000E+00  0.0000E+00
    -24.058  0.0000E+00  0.0000E+00
    -24.044  0.0000E+00  0.0000E+00
    -24.030  0.0000E+00  0.0000E+00
    -24.016  0.0000E+00  0.0000E+00
    -24.002  0.0000E+00  0.0000E+00
    -23.988  0.0000E+00  0.0000E+00
    -23.974  0.0000E+00  0.0000E+00
    -23.960  0.0000E+00  0.0000E+00
    -23.946  0.0000E+00  0.0000E+00
    -23.932  0.0000E+00  0.0000E+00
    -23.918  0.0000E+00  0.0000E+00
    -23.904  0.0000E+00  0.0000E+00
    -23.890  0.0000E+00  0.0000E+00
    -23.876  0.0000E+00  0.0000E+00
    -23.862  0.0000E+00  0.0000E+00
    -23.848  0.0000E+00  0.0000E+00
    -23.834  0.0000E+00  0.0000E+00
    -23.820  0.0000E+00  0.0000E+00
    -23.806  0.0000E+00  0.0000E+00
    -23.792  0.0000E+00  0.0000E+00
    -23.778  0.0000E+00  0.0000E+00
    -23.764  0.0000E+00  0.0000E+00
    -23.750  0.0000E+00  0.0000E+00
    -23.736  0.0000E+00  0.0000E+00
    -23.722  0.0000E+00  0.0000E+00
    -23.708  0.0000E+00  0.0000E+00
    -23.694  0.0000E+00  0.0000E+00
    -23.680  0.0000E+00  0.0000E+00
    -23.666  0.0000E+00  0.0000E+00
    -23.652  0.0000E+00  0.0000E+00
    -23.638  0.0000E+00  0.0000E+00
    -23.624  0.0000E+00  0.0000E+00
    -23.610  0.0000E+00  0.0000E+00
    -23.596  0.0000E+00  0.0000E+00
    -23.582  0.0000E+00  0.0000E+00
    -23.568  0.0000E+00  0.0000E+00
    -23.554  0.0000E+00  0.0000E+00
    -23.540  0.0000E+00  0.0000E+00
    -23.526  0.0000E+00  0.0000E+00
    -23.512  0.0000E+00  0.0000E+00
    -23.498  0.0000E+00  0.0000E+00
    -23.484  0.0000E+00  0.0000E+00
    -23.470  0.0000E+00  0.0000E+00
    -23.456  0.2643E-14  0.3701E-16
    -23.442  0.7930E-14  0.1480E-15
    -23.428  0.1145E-13  0.3084E-15
    -23.414  0.2819E-13  0.7031E-15
    -23.400  0.6256E-13  0.1579E-14
    -23.386  0.1330E-12  0.3442E-14
    -23.372  0.2952E-12  0.7574E-14
    -23.358  0.6370E-12  0.1649E-13
    -23.344  0.1359E-11  0.3551E-13
    -23.330  0.2868E-11  0.7567E-13
    -23.316  0.6009E-11  0.1598E-12
    -23.302  0.1246E-10  0.3342E-12
    -23.288  0.2556E-10  0.6921E-12
    -23.274  0.5198E-10  0.1420E-11
    -23.260  0.1046E-09  0.2885E-11
    -23.246  0.2086E-09  0.5805E-11
    -23.232  0.4118E-09  0.1157E-10
    -23.218  0.8051E-09  0.2284E-10
    -23.204  0.1559E-08  0.4467E-10
    -23.190  0.2988E-08  0.8651E-10
    -23.176  0.5673E-08  0.1659E-09
    -23.162  0.1067E-07  0.3153E-09
    -23.148  0.1986E-07  0.5933E-09
    -23.134  0.3661E-07  0.1106E-08
    -23.120  0.6685E-07  0.2042E-08
    -23.106  0.1209E-06  0.3734E-08
    -23.092  0.2164E-06  0.6764E-08
    -23.078  0.3837E-06  0.1214E-07
    -23.064  0.6737E-06  0.2157E-07
    -23.050  0.1171E-05  0.3797E-07
    -23.036  0.2017E-05  0.6621E-07
    -23.022  0.3439E-05  0.1144E-06
    -23.008  0.5808E-05  0.1957E-06
    -22.994  0.9711E-05  0.3317E-06
    -22.980  0.1608E-04  0.5568E-06
    -22.966  0.2637E-04  0.9260E-06
    -22.952  0.4282E-04  0.1526E-05
    -22.938  0.6885E-04  0.2490E-05
    -22.924  0.1096E-03  0.4025E-05
    -22.910  0.1729E-03  0.6446E-05
    -22.896  0.2700E-03  0.1023E-04
    -22.882  0.4176E-03  0.1607E-04
    -22.868  0.6395E-03  0.2503E-04
    -22.854  0.9697E-03  0.3860E-04
    -22.840  0.1456E-02  0.5899E-04
    -22.826  0.2166E-02  0.8932E-04
    -22.812  0.3190E-02  0.1340E-03
    -22.798  0.4652E-02  0.1991E-03
    -22.784  0.6719E-02  0.2932E-03
    -22.770  0.9609E-02  0.4277E-03
    -22.756  0.1361E-01  0.6183E-03
    -22.742  0.1909E-01  0.8855E-03
    -22.728  0.2651E-01  0.1257E-02
    -22.714  0.3647E-01  0.1767E-02
    -22.700  0.4968E-01  0.2463E-02
    -22.686  0.6701E-01  0.3401E-02
    -22.672  0.8951E-01  0.4654E-02
    -22.658  0.1184E+00  0.6312E-02
    -22.644  0.1551E+00  0.8484E-02
    -22.630  0.2013E+00  0.1130E-01
    -22.616  0.2586E+00  0.1492E-01
    -22.602  0.3290E+00  0.1953E-01
    -22.588  0.4146E+00  0.2533E-01
    -22.574  0.5174E+00  0.3258E-01
    -22.560  0.6395E+00  0.4153E-01
    -22.546  0.7828E+00  0.5249E-01
    -22.532  0.9490E+00  0.6578E-01
    -22.518  0.1140E+01  0.8173E-01
    -22.504  0.1355E+01  0.1007E+00
    -22.490  0.1597E+01  0.1231E+00
    -22.476  0.1863E+01  0.1491E+00
    -22.462  0.2154E+01  0.1793E+00
    -22.448  0.2467E+01  0.2138E+00
    -22.434  0.2799E+01  0.2530E+00
    -22.420  0.3147E+01  0.2971E+00
    -22.406  0.3507E+01  0.3462E+00
    -22.392  0.3872E+01  0.4004E+00
    -22.378  0.4239E+01  0.4598E+00
    -22.364  0.4601E+01  0.5242E+00
    -22.350  0.4953E+01  0.5935E+00
    -22.336  0.5288E+01  0.6676E+00
    -22.322  0.5603E+01  0.7460E+00
    -22.308  0.5892E+01  0.8285E+00
    -22.294  0.6153E+01  0.9147E+00
    -22.280  0.6384E+01  0.1004E+01
    -22.266  0.6583E+01  0.1096E+01
    -22.252  0.6751E+01  0.1191E+01
    -22.238  0.6889E+01  0.1287E+01
    -22.224  0.7000E+01  0.1385E+01
    -22.210  0.7087E+01  0.1484E+01
    -22.196  0.7153E+01  0.1585E+01
    -22.182  0.7203E+01  0.1685E+01
    -22.168  0.7241E+01  0.1787E+01
    -22.154  0.7270E+01  0.1889E+01
    -22.140  0.7293E+01  0.1991E+01
    -22.126  0.7312E+01  0.2093E+01
    -22.112  0.7330E+01  0.2196E+01
    -22.098  0.7347E+01  0.2299E+01
    -22.084  0.7363E+01  0.2402E+01
    -22.070  0.7377E+01  0.2505E+01
    -22.056  0.7389E+01  0.2608E+01
    -22.042  0.7398E+01  0.2712E+01
    -22.028  0.7403E+01  0.2816E+01
    -22.014  0.7403E+01  0.2919E+01
    -22.000  0.7400E+01  0.3023E+01
    -21.986  0.7394E+01  0.3126E+01
    -21.972  0.7388E+01  0.3230E+01
    -21.958  0.7383E+01  0.3333E+01
    -21.944  0.7384E+01  0.3437E+01
    -21.930  0.7395E+01  0.3540E+01
    -21.916  0.7422E+01  0.3644E+01
    -21.902  0.7467E+01  0.3749E+01
    -21.888  0.7538E+01  0.3854E+01
    -21.874  0.7637E+01  0.3961E+01
    -21.860  0.7769E+01  0.4070E+01
    -21.846  0.7935E+01  0.4181E+01
    -21.832  0.8138E+01  0.4295E+01
    -21.818  0.8378E+01  0.4412E+01
    -21.804  0.8654E+01  0.4533E+01
    -21.790  0.8963E+01  0.4659E+01
    -21.776  0.9303E+01  0.4789E+01
    -21.762  0.9669E+01  0.4924E+01
    -21.748  0.1006E+02  0.5065E+01
    -21.734  0.1046E+02  0.5212E+01
    -21.720  0.1088E+02  0.5364E+01
    -21.706  0.1130E+02  0.5522E+01
    -21.692  0.1172E+02  0.5686E+01
    -21.678  0.1213E+02  0.5856E+01
    -21.664  0.1254E+02  0.6032E+01
    -21.650  0.1293E+02  0.6213E+01
    -21.636  0.1331E+02  0.6399E+01
    -21.622  0.1366E+02  0.6590E+01
    -21.608  0.1400E+02  0.6786E+01
    -21.594  0.1431E+02  0.6987E+01
    -21.580  0.1460E+02  0.7191E+01
    -21.566  0.1487E+02  0.7399E+01
    -21.552  0.1510E+02  0.7611E+01
    -21.538  0.1532E+02  0.7825E+01
    -21.524  0.1551E+02  0.8042E+01
    -21.510  0.1567E+02  0.8262E+01
    -21.496  0.1581E+02  0.8483E+01
    -21.482  0.1592E+02  0.8706E+01
    -21.468  0.1601E+02  0.8930E+01
    -21.454  0.1607E+02  0.9155E+01
    -21.440  0.1611E+02  0.9381E+01
    -21.426  0.1613E+02  0.9607E+01
    -21.412  0.1611E+02  0.9832E+01
    -21.398  0.1608E+02  0.1006E+02
    -21.384  0.1602E+02  0.1028E+02
    -21.370  0.1593E+02  0.1050E+02
    -21.356  0.1582E+02  0.1073E+02
    -21.342  0.1569E+02  0.1095E+02
    -21.328  0.1553E+02  0.1116E+02
    -21.314  0.1535E+02  0.1138E+02
    -21.300  0.1515E+02  0.1159E+02
    -21.286  0.1493E+02  0.1180E+02
    -21.272  0.1469E+02  0.1201E+02
    -21.258  0.1444E+02  0.1221E+02
    -21.244  0.1417E+02  0.1241E+02
    -21.230  0.1390E+02  0.1260E+02
    -21.216  0.1362E+02  0.1279E+02
    -21.202  0.1334E+02  0.1298E+02
    -21.188  0.1307E+02  0.1316E+02
    -21.174  0.1280E+02  0.1334E+02
    -21.160  0.1255E+02  0.1352E+02
    -21.146  0.1231E+02  0.1369E+02
    -21.132  0.1209E+02  0.1386E+02
    -21.118  0.1190E+02  0.1402E+02
    -21.104  0.1173E+02  0.1419E+02
    -21.090  0.1160E+02  0.1435E+02
    -21.076  0.1149E+02  0.1451E+02
    -21.062  0.1143E+02  0.1467E+02
    -21.048  0.1140E+02  0.1483E+02
    -21.034  0.1141E+02  0.1499E+02
    -21.020  0.1147E+02  0.1515E+02
    -21.006  0.1156E+02  0.1531E+02
    -20.992  0.1168E+02  0.1548E+02
    -20.978  0.1185E+02  0.1564E+02
    -20.964  0.1205E+02  0.1581E+02
    -20.950  0.1229E+02  0.1598E+02
    -20.936  0.1255E+02  0.1616E+02
    -20.922  0.1285E+02  0.1634E+02
    -20.908  0.1316E+02  0.1652E+02
    -20.894  0.1349E+02  0.1671E+02
    -20.880  0.1383E+02  0.1691E+02
    -20.866  0.1418E+02  0.1710E+02
    -20.852  0.1453E+02  0.1731E+02
    -20.838  0.1487E+02  0.1752E+02
    -20.824  0.1520E+02  0.1773E+02
    -20.810  0.1551E+02  0.1795E+02
    -20.796  0.1579E+02  0.1817E+02
    -20.782  0.1605E+02  0.1839E+02
    -20.768  0.1628E+02  0.1862E+02
    -20.754  0.1647E+02  0.1885E+02
    -20.740  0.1662E+02  0.1908E+02
    -20.726  0.1674E+02  0.1932E+02
    -20.712  0.1682E+02  0.1955E+02
    -20.698  0.1686E+02  0.1979E+02
    -20.684  0.1687E+02  0.2003E+02
    -20.670  0.1685E+02  0.2026E+02
    -20.656  0.1680E+02  0.2050E+02
    -20.642  0.1673E+02  0.2073E+02
    -20.628  0.1664E+02  0.2096E+02
    -20.614  0.1654E+02  0.2120E+02
    -20.600  0.1644E+02  0.2143E+02
    -20.586  0.1634E+02  0.2165E+02
    -20.572  0.1624E+02  0.2188E+02
    -20.558  0.1615E+02  0.2211E+02
    -20.544  0.1607E+02  0.2233E+02
    -20.530  0.1601E+02  0.2256E+02
    -20.516  0.1596E+02  0.2278E+02
    -20.502  0.1593E+02  0.2300E+02
    -20.488  0.1592E+02  0.2323E+02
    -20.474  0.1593E+02  0.2345E+02
    -20.460  0.1594E+02  0.2367E+02
    -20.446  0.1597E+02  0.2390E+02
    -20.432  0.1600E+02  0.2412E+02
    -20.418  0.1603E+02  0.2434E+02
    -20.404  0.1605E+02  0.2457E+02
    -20.390  0.1606E+02  0.2479E+02
    -20.376  0.1605E+02  0.2502E+02
    -20.362  0.1603E+02  0.2524E+02
    -20.348  0.1598E+02  0.2547E+02
    -20.334  0.1590E+02  0.2569E+02
    -20.320  0.1580E+02  0.2591E+02
    -20.306  0.1567E+02  0.2613E+02
    -20.292  0.1552E+02  0.2635E+02
    -20.278  0.1534E+02  0.2656E+02
    -20.264  0.1514E+02  0.2677E+02
    -20.250  0.1492E+02  0.2698E+02
    -20.236  0.1469E+02  0.2719E+02
    -20.222  0.1446E+02  0.2739E+02
    -20.208  0.1422E+02  0.2759E+02
    -20.194  0.1399E+02  0.2779E+02
    -20.180  0.1377E+02  0.2798E+02
    -20.166  0.1356E+02  0.2817E+02
    -20.151  0.1337E+02  0.2836E+02
    -20.137  0.1321E+02  0.2854E+02
    -20.123  0.1307E+02  0.2872E+02
    -20.109  0.1295E+02  0.2891E+02
    -20.095  0.1286E+02  0.2909E+02
    -20.081  0.1281E+02  0.2927E+02
    -20.067  0.1278E+02  0.2944E+02
    -20.053  0.1277E+02  0.2962E+02
    -20.039  0.1280E+02  0.2980E+02
    -20.025  0.1284E+02  0.2998E+02
    -20.011  0.1291E+02  0.3016E+02
    -19.997  0.1299E+02  0.3034E+02
    -19.983  0.1310E+02  0.3053E+02
    -19.969  0.1321E+02  0.3071E+02
    -19.955  0.1334E+02  0.3090E+02
    -19.941  0.1347E+02  0.3109E+02
    -19.927  0.1361E+02  0.3128E+02
    -19.913  0.1376E+02  0.3147E+02
    -19.899  0.1390E+02  0.3167E+02
    -19.885  0.1405E+02  0.3186E+02
    -19.871  0.1420E+02  0.3206E+02
    -19.857  0.1435E+02  0.3226E+02
    -19.843  0.1450E+02  0.3247E+02
    -19.829  0.1464E+02  0.3267E+02
    -19.815  0.1478E+02  0.3288E+02
    -19.801  0.1492E+02  0.3309E+02
    -19.787  0.1506E+02  0.3330E+02
    -19.773  0.1519E+02  0.3351E+02
    -19.759  0.1532E+02  0.3372E+02
    -19.745  0.1544E+02  0.3394E+02
    -19.731  0.1555E+02  0.3416E+02
    -19.717  0.1566E+02  0.3438E+02
    -19.703  0.1575E+02  0.3460E+02
    -19.689  0.1584E+02  0.3482E+02
    -19.675  0.1592E+02  0.3504E+02
    -19.661  0.1598E+02  0.3527E+02
    -19.647  0.1603E+02  0.3549E+02
    -19.633  0.1607E+02  0.3572E+02
    -19.619  0.1609E+02  0.3594E+02
    -19.605  0.1609E+02  0.3617E+02
    -19.591  0.1608E+02  0.3639E+02
    -19.577  0.1605E+02  0.3662E+02
    -19.563  0.1600E+02  0.3684E+02
    -19.549  0.1594E+02  0.3706E+02
    -19.535  0.1587E+02  0.3729E+02
    -19.521  0.1578E+02  0.3751E+02
    -19.507  0.1568E+02  0.3773E+02
    -19.493  0.1557E+02  0.3794E+02
    -19.479  0.1545E+02  0.3816E+02
    -19.465  0.1533E+02  0.3838E+02
    -19.451  0.1521E+02  0.3859E+02
    -19.437  0.1509E+02  0.3880E+02
    -19.423  0.1498E+02  0.3901E+02
    -19.409  0.1487E+02  0.3922E+02
    -19.395  0.1477E+02  0.3942E+02
    -19.381  0.1468E+02  0.3963E+02
    -19.367  0.1460E+02  0.3983E+02
    -19.353  0.1454E+02  0.4004E+02
    -19.339  0.1449E+02  0.4024E+02
    -19.325  0.1445E+02  0.4044E+02
    -19.311  0.1443E+02  0.4064E+02
    -19.297  0.1443E+02  0.4085E+02
    -19.283  0.1444E+02  0.4105E+02
    -19.269  0.1447E+02  0.4125E+02
    -19.255  0.1451E+02  0.4145E+02
    -19.241  0.1456E+02  0.4166E+02
    -19.227  0.1462E+02  0.4186E+02
    -19.213  0.1468E+02  0.4207E+02
    -19.199  0.1476E+02  0.4228E+02
    -19.185  0.1483E+02  0.4248E+02
    -19.171  0.1491E+02  0.4269E+02
    -19.157  0.1499E+02  0.4290E+02
    -19.143  0.1506E+02  0.4311E+02
    -19.129  0.1514E+02  0.4332E+02
    -19.115  0.1520E+02  0.4354E+02
    -19.101  0.1526E+02  0.4375E+02
    -19.087  0.1531E+02  0.4397E+02
    -19.073  0.1536E+02  0.4418E+02
    -19.059  0.1540E+02  0.4440E+02
    -19.045  0.1544E+02  0.4461E+02
    -19.031  0.1547E+02  0.4483E+02
    -19.017  0.1550E+02  0.4505E+02
    -19.003  0.1554E+02  0.4526E+02
    -18.989  0.1557E+02  0.4548E+02
    -18.975  0.1562E+02  0.4570E+02
    -18.961  0.1567E+02  0.4592E+02
    -18.947  0.1573E+02  0.4614E+02
    -18.933  0.1580E+02  0.4636E+02
    -18.919  0.1589E+02  0.4658E+02
    -18.905  0.1600E+02  0.4681E+02
    -18.891  0.1612E+02  0.4703E+02
    -18.877  0.1625E+02  0.4726E+02
    -18.863  0.1640E+02  0.4749E+02
    -18.849  0.1656E+02  0.4772E+02
    -18.835  0.1673E+02  0.4796E+02
    -18.821  0.1690E+02  0.4819E+02
    -18.807  0.1707E+02  0.4843E+02
    -18.793  0.1724E+02  0.4867E+02
    -18.779  0.1740E+02  0.4892E+02
    -18.765  0.1755E+02  0.4916E+02
    -18.751  0.1768E+02  0.4941E+02
    -18.737  0.1778E+02  0.4966E+02
    -18.723  0.1785E+02  0.4991E+02
    -18.709  0.1790E+02  0.5016E+02
    -18.695  0.1791E+02  0.5041E+02
    -18.681  0.1789E+02  0.5066E+02
    -18.667  0.1783E+02  0.5091E+02
    -18.653  0.1775E+02  0.5116E+02
    -18.639  0.1764E+02  0.5141E+02
    -18.625  0.1751E+02  0.5165E+02
    -18.611  0.1737E+02  0.5189E+02
    -18.597  0.1721E+02  0.5214E+02
    -18.583  0.1705E+02  0.5237E+02
    -18.569  0.1689E+02  0.5261E+02
    -18.555  0.1674E+02  0.5284E+02
    -18.541  0.1660E+02  0.5308E+02
    -18.527  0.1648E+02  0.5331E+02
    -18.513  0.1638E+02  0.5354E+02
    -18.499  0.1631E+02  0.5377E+02
    -18.485  0.1627E+02  0.5399E+02
    -18.471  0.1625E+02  0.5422E+02
    -18.457  0.1626E+02  0.5445E+02
    -18.443  0.1629E+02  0.5468E+02
    -18.429  0.1634E+02  0.5491E+02
    -18.415  0.1640E+02  0.5514E+02
    -18.401  0.1648E+02  0.5537E+02
    -18.387  0.1657E+02  0.5560E+02
    -18.373  0.1666E+02  0.5583E+02
    -18.359  0.1676E+02  0.5607E+02
    -18.345  0.1685E+02  0.5630E+02
    -18.331  0.1693E+02  0.5654E+02
    -18.317  0.1701E+02  0.5678E+02
    -18.303  0.1708E+02  0.5702E+02
    -18.289  0.1713E+02  0.5726E+02
    -18.275  0.1717E+02  0.5750E+02
    -18.261  0.1721E+02  0.5774E+02
    -18.247  0.1723E+02  0.5798E+02
    -18.233  0.1723E+02  0.5822E+02
    -18.219  0.1723E+02  0.5846E+02
    -18.205  0.1723E+02  0.5870E+02
    -18.191  0.1721E+02  0.5894E+02
    -18.177  0.1719E+02  0.5918E+02
    -18.163  0.1717E+02  0.5942E+02
    -18.149  0.1715E+02  0.5966E+02
    -18.135  0.1713E+02  0.5990E+02
    -18.121  0.1711E+02  0.6014E+02
    -18.107  0.1710E+02  0.6038E+02
    -18.093  0.1709E+02  0.6062E+02
    -18.079  0.1709E+02  0.6086E+02
    -18.065  0.1710E+02  0.6110E+02
    -18.051  0.1712E+02  0.6134E+02
    -18.037  0.1714E+02  0.6158E+02
    -18.023  0.1718E+02  0.6182E+02
    -18.009  0.1722E+02  0.6206E+02
    -17.995  0.1728E+02  0.6230E+02
    -17.981  0.1734E+02  0.6255E+02
    -17.967  0.1741E+02  0.6279E+02
    -17.953  0.1748E+02  0.6304E+02
    -17.939  0.1755E+02  0.6328E+02
    -17.925  0.1763E+02  0.6353E+02
    -17.911  0.1771E+02  0.6378E+02
    -17.897  0.1778E+02  0.6403E+02
    -17.883  0.1785E+02  0.6427E+02
    -17.869  0.1792E+02  0.6453E+02
    -17.855  0.1797E+02  0.6478E+02
    -17.841  0.1802E+02  0.6503E+02
    -17.827  0.1806E+02  0.6528E+02
    -17.813  0.1808E+02  0.6554E+02
    -17.799  0.1810E+02  0.6579E+02
    -17.785  0.1810E+02  0.6604E+02
    -17.771  0.1810E+02  0.6630E+02
    -17.757  0.1809E+02  0.6655E+02
    -17.743  0.1807E+02  0.6680E+02
    -17.729  0.1805E+02  0.6705E+02
    -17.715  0.1803E+02  0.6731E+02
    -17.701  0.1801E+02  0.6756E+02
    -17.687  0.1800E+02  0.6781E+02
    -17.673  0.1800E+02  0.6806E+02
    -17.659  0.1801E+02  0.6832E+02
    -17.645  0.1803E+02  0.6857E+02
    -17.631  0.1806E+02  0.6882E+02
    -17.617  0.1811E+02  0.6907E+02
    -17.603  0.1818E+02  0.6933E+02
    -17.589  0.1826E+02  0.6958E+02
    -17.575  0.1835E+02  0.6984E+02
    -17.561  0.1845E+02  0.7010E+02
    -17.547  0.1856E+02  0.7036E+02
    -17.533  0.1867E+02  0.7062E+02
    -17.519  0.1878E+02  0.7088E+02
    -17.505  0.1889E+02  0.7115E+02
    -17.491  0.1898E+02  0.7141E+02
    -17.477  0.1907E+02  0.7168E+02
    -17.463  0.1913E+02  0.7195E+02
    -17.449  0.1917E+02  0.7222E+02
    -17.435  0.1920E+02  0.7249E+02
    -17.421  0.1919E+02  0.7276E+02
    -17.407  0.1916E+02  0.7302E+02
    -17.393  0.1911E+02  0.7329E+02
    -17.379  0.1903E+02  0.7356E+02
    -17.365  0.1892E+02  0.7382E+02
    -17.351  0.1879E+02  0.7409E+02
    -17.337  0.1864E+02  0.7435E+02
    -17.323  0.1846E+02  0.7461E+02
    -17.309  0.1827E+02  0.7486E+02
    -17.295  0.1806E+02  0.7511E+02
    -17.281  0.1784E+02  0.7536E+02
    -17.267  0.1761E+02  0.7561E+02
    -17.253  0.1736E+02  0.7585E+02
    -17.239  0.1711E+02  0.7609E+02
    -17.225  0.1685E+02  0.7633E+02
    -17.211  0.1659E+02  0.7656E+02
    -17.197  0.1632E+02  0.7679E+02
    -17.183  0.1606E+02  0.7701E+02
    -17.169  0.1580E+02  0.7724E+02
    -17.155  0.1554E+02  0.7745E+02
    -17.141  0.1529E+02  0.7767E+02
    -17.127  0.1506E+02  0.7788E+02
    -17.113  0.1484E+02  0.7809E+02
    -17.099  0.1464E+02  0.7829E+02
    -17.085  0.1446E+02  0.7849E+02
    -17.071  0.1431E+02  0.7869E+02
    -17.057  0.1419E+02  0.7889E+02
    -17.043  0.1410E+02  0.7909E+02
    -17.029  0.1404E+02  0.7929E+02
    -17.015  0.1401E+02  0.7948E+02
    -17.001  0.1401E+02  0.7968E+02
    -16.987  0.1404E+02  0.7988E+02
    -16.973  0.1410E+02  0.8007E+02
    -16.959  0.1418E+02  0.8027E+02
    -16.945  0.1427E+02  0.8047E+02
    -16.931  0.1438E+02  0.8067E+02
    -16.917  0.1449E+02  0.8088E+02
    -16.903  0.1460E+02  0.8108E+02
    -16.889  0.1471E+02  0.8129E+02
    -16.875  0.1480E+02  0.8149E+02
    -16.861  0.1488E+02  0.8170E+02
    -16.847  0.1494E+02  0.8191E+02
    -16.833  0.1498E+02  0.8212E+02
    -16.819  0.1501E+02  0.8233E+02
    -16.805  0.1500E+02  0.8254E+02
    -16.791  0.1498E+02  0.8275E+02
    -16.777  0.1494E+02  0.8296E+02
    -16.763  0.1489E+02  0.8317E+02
    -16.749  0.1481E+02  0.8338E+02
    -16.735  0.1473E+02  0.8358E+02
    -16.721  0.1463E+02  0.8379E+02
    -16.707  0.1453E+02  0.8399E+02
    -16.693  0.1442E+02  0.8419E+02
    -16.679  0.1430E+02  0.8439E+02
    -16.665  0.1418E+02  0.8459E+02
    -16.651  0.1406E+02  0.8479E+02
    -16.637  0.1393E+02  0.8498E+02
    -16.623  0.1380E+02  0.8518E+02
    -16.609  0.1367E+02  0.8537E+02
    -16.595  0.1353E+02  0.8556E+02
    -16.581  0.1339E+02  0.8574E+02
    -16.567  0.1325E+02  0.8593E+02
    -16.553  0.1311E+02  0.8611E+02
    -16.539  0.1297E+02  0.8629E+02
    -16.525  0.1283E+02  0.8647E+02
    -16.511  0.1268E+02  0.8665E+02
    -16.497  0.1255E+02  0.8683E+02
    -16.483  0.1241E+02  0.8700E+02
    -16.469  0.1228E+02  0.8717E+02
    -16.455  0.1215E+02  0.8734E+02
    -16.441  0.1203E+02  0.8751E+02
    -16.427  0.1192E+02  0.8768E+02
    -16.413  0.1181E+02  0.8784E+02
    -16.399  0.1171E+02  0.8801E+02
    -16.385  0.1162E+02  0.8817E+02
    -16.371  0.1153E+02  0.8833E+02
    -16.357  0.1146E+02  0.8849E+02
    -16.343  0.1139E+02  0.8865E+02
    -16.329  0.1134E+02  0.8881E+02
    -16.315  0.1129E+02  0.8897E+02
    -16.301  0.1126E+02  0.8913E+02
    -16.287  0.1125E+02  0.8928E+02
    -16.273  0.1125E+02  0.8944E+02
    -16.259  0.1127E+02  0.8960E+02
    -16.245  0.1132E+02  0.8976E+02
    -16.231  0.1139E+02  0.8992E+02
    -16.217  0.1148E+02  0.9008E+02
    -16.203  0.1159E+02  0.9024E+02
    -16.189  0.1173E+02  0.9040E+02
    -16.175  0.1190E+02  0.9057E+02
    -16.161  0.1209E+02  0.9074E+02
    -16.147  0.1229E+02  0.9091E+02
    -16.133  0.1252E+02  0.9109E+02
    -16.119  0.1275E+02  0.9127E+02
    -16.105  0.1300E+02  0.9145E+02
    -16.091  0.1325E+02  0.9163E+02
    -16.077  0.1349E+02  0.9182E+02
    -16.063  0.1373E+02  0.9202E+02
    -16.049  0.1396E+02  0.9221E+02
    -16.035  0.1417E+02  0.9241E+02
    -16.021  0.1436E+02  0.9261E+02
    -16.007  0.1453E+02  0.9281E+02
    -15.993  0.1467E+02  0.9302E+02
    -15.979  0.1478E+02  0.9323E+02
    -15.965  0.1486E+02  0.9343E+02
    -15.951  0.1492E+02  0.9364E+02
    -15.937  0.1495E+02  0.9385E+02
    -15.923  0.1495E+02  0.9406E+02
    -15.909  0.1494E+02  0.9427E+02
    -15.895  0.1490E+02  0.9448E+02
    -15.881  0.1485E+02  0.9469E+02
    -15.867  0.1480E+02  0.9489E+02
    -15.853  0.1473E+02  0.9510E+02
    -15.839  0.1467E+02  0.9531E+02
    -15.825  0.1460E+02  0.9551E+02
    -15.811  0.1454E+02  0.9571E+02
    -15.797  0.1449E+02  0.9592E+02
    -15.783  0.1445E+02  0.9612E+02
    -15.769  0.1442E+02  0.9632E+02
    -15.755  0.1441E+02  0.9652E+02
    -15.741  0.1441E+02  0.9672E+02
    -15.727  0.1442E+02  0.9693E+02
    -15.713  0.1445E+02  0.9713E+02
    -15.699  0.1449E+02  0.9733E+02
    -15.685  0.1455E+02  0.9754E+02
    -15.671  0.1463E+02  0.9774E+02
    -15.657  0.1471E+02  0.9795E+02
    -15.643  0.1481E+02  0.9815E+02
    -15.629  0.1493E+02  0.9836E+02
    -15.615  0.1505E+02  0.9857E+02
    -15.601  0.1518E+02  0.9879E+02
    -15.587  0.1532E+02  0.9900E+02
    -15.573  0.1546E+02  0.9922E+02
    -15.559  0.1561E+02  0.9944E+02
    -15.545  0.1575E+02  0.9966E+02
    -15.531  0.1589E+02  0.9988E+02
    -15.517  0.1603E+02  0.1001E+03
    -15.503  0.1617E+02  0.1003E+03
    -15.489  0.1629E+02  0.1006E+03
    -15.475  0.1641E+02  0.1008E+03
    -15.461  0.1651E+02  0.1010E+03
    -15.447  0.1661E+02  0.1013E+03
    -15.433  0.1669E+02  0.1015E+03
    -15.419  0.1677E+02  0.1017E+03
    -15.405  0.1683E+02  0.1020E+03
    -15.391  0.1689E+02  0.1022E+03
    -15.377  0.1694E+02  0.1024E+03
    -15.363  0.1699E+02  0.1027E+03
    -15.349  0.1702E+02  0.1029E+03
    -15.335  0.1705E+02  0.1031E+03
    -15.321  0.1708E+02  0.1034E+03
    -15.307  0.1710E+02  0.1036E+03
    -15.293  0.1711E+02  0.1039E+03
    -15.279  0.1712E+02  0.1041E+03
    -15.265  0.1712E+02  0.1043E+03
    -15.251  0.1712E+02  0.1046E+03
    -15.237  0.1711E+02  0.1048E+03
    -15.223  0.1709E+02  0.1051E+03
    -15.209  0.1707E+02  0.1053E+03
    -15.195  0.1705E+02  0.1055E+03
    -15.181  0.1703E+02  0.1058E+03
    -15.167  0.1700E+02  0.1060E+03
    -15.153  0.1697E+02  0.1063E+03
    -15.139  0.1695E+02  0.1065E+03
    -15.125  0.1693E+02  0.1067E+03
    -15.111  0.1692E+02  0.1070E+03
    -15.097  0.1692E+02  0.1072E+03
    -15.083  0.1692E+02  0.1074E+03
    -15.069  0.1694E+02  0.1077E+03
    -15.055  0.1697E+02  0.1079E+03
    -15.041  0.1701E+02  0.1081E+03
    -15.027  0.1706E+02  0.1084E+03
    -15.013  0.1713E+02  0.1086E+03
    -14.999  0.1721E+02  0.1089E+03
    -14.985  0.1730E+02  0.1091E+03
    -14.971  0.1739E+02  0.1094E+03
    -14.957  0.1750E+02  0.1096E+03
    -14.943  0.1762E+02  0.1098E+03
    -14.929  0.1774E+02  0.1101E+03
    -14.915  0.1786E+02  0.1103E+03
    -14.901  0.1798E+02  0.1106E+03
    -14.887  0.1811E+02  0.1109E+03
    -14.873  0.1823E+02  0.1111E+03
    -14.859  0.1835E+02  0.1114E+03
    -14.845  0.1846E+02  0.1116E+03
    -14.831  0.1855E+02  0.1119E+03
    -14.817  0.1864E+02  0.1121E+03
    -14.803  0.1871E+02  0.1124E+03
    -14.789  0.1876E+02  0.1127E+03
    -14.775  0.1879E+02  0.1129E+03
    -14.761  0.1879E+02  0.1132E+03
    -14.747  0.1878E+02  0.1135E+03
    -14.733  0.1873E+02  0.1137E+03
    -14.719  0.1867E+02  0.1140E+03
    -14.705  0.1857E+02  0.1142E+03
    -14.691  0.1845E+02  0.1145E+03
    -14.677  0.1831E+02  0.1148E+03
    -14.663  0.1815E+02  0.1150E+03
    -14.649  0.1797E+02  0.1153E+03
    -14.635  0.1777E+02  0.1155E+03
    -14.621  0.1756E+02  0.1158E+03
    -14.607  0.1735E+02  0.1160E+03
    -14.593  0.1713E+02  0.1162E+03
    -14.579  0.1691E+02  0.1165E+03
    -14.565  0.1670E+02  0.1167E+03
    -14.551  0.1649E+02  0.1169E+03
    -14.537  0.1630E+02  0.1172E+03
    -14.523  0.1612E+02  0.1174E+03
    -14.509  0.1596E+02  0.1176E+03
    -14.495  0.1582E+02  0.1178E+03
    -14.481  0.1570E+02  0.1181E+03
    -14.467  0.1560E+02  0.1183E+03
    -14.453  0.1552E+02  0.1185E+03
    -14.439  0.1547E+02  0.1187E+03
    -14.425  0.1544E+02  0.1189E+03
    -14.411  0.1543E+02  0.1191E+03
    -14.397  0.1544E+02  0.1194E+03
    -14.383  0.1547E+02  0.1196E+03
    -14.369  0.1551E+02  0.1198E+03
    -14.355  0.1557E+02  0.1200E+03
    -14.341  0.1563E+02  0.1202E+03
    -14.327  0.1570E+02  0.1204E+03
    -14.313  0.1577E+02  0.1207E+03
    -14.299  0.1583E+02  0.1209E+03
    -14.285  0.1589E+02  0.1211E+03
    -14.271  0.1594E+02  0.1213E+03
    -14.257  0.1597E+02  0.1216E+03
    -14.243  0.1598E+02  0.1218E+03
    -14.229  0.1598E+02  0.1220E+03
    -14.215  0.1596E+02  0.1222E+03
    -14.201  0.1592E+02  0.1225E+03
    -14.187  0.1586E+02  0.1227E+03
    -14.173  0.1579E+02  0.1229E+03
    -14.159  0.1570E+02  0.1231E+03
    -14.145  0.1561E+02  0.1233E+03
    -14.131  0.1552E+02  0.1236E+03
    -14.117  0.1543E+02  0.1238E+03
    -14.103  0.1534E+02  0.1240E+03
    -14.089  0.1527E+02  0.1242E+03
    -14.075  0.1520E+02  0.1244E+03
    -14.061  0.1516E+02  0.1246E+03
    -14.047  0.1513E+02  0.1248E+03
    -14.033  0.1513E+02  0.1250E+03
    -14.019  0.1514E+02  0.1253E+03
    -14.005  0.1517E+02  0.1255E+03
    -13.991  0.1523E+02  0.1257E+03
    -13.977  0.1529E+02  0.1259E+03
    -13.963  0.1537E+02  0.1261E+03
    -13.949  0.1546E+02  0.1263E+03
    -13.935  0.1555E+02  0.1265E+03
    -13.921  0.1565E+02  0.1268E+03
    -13.907  0.1575E+02  0.1270E+03
    -13.893  0.1584E+02  0.1272E+03
    -13.879  0.1592E+02  0.1274E+03
    -13.865  0.1599E+02  0.1277E+03
    -13.851  0.1606E+02  0.1279E+03
    -13.837  0.1611E+02  0.1281E+03
    -13.823  0.1615E+02  0.1283E+03
    -13.809  0.1617E+02  0.1286E+03
    -13.795  0.1618E+02  0.1288E+03
    -13.781  0.1618E+02  0.1290E+03
    -13.767  0.1617E+02  0.1292E+03
    -13.753  0.1614E+02  0.1295E+03
    -13.739  0.1611E+02  0.1297E+03
    -13.725  0.1606E+02  0.1299E+03
    -13.711  0.1600E+02  0.1301E+03
    -13.697  0.1594E+02  0.1304E+03
    -13.683  0.1587E+02  0.1306E+03
    -13.669  0.1580E+02  0.1308E+03
    -13.655  0.1572E+02  0.1310E+03
    -13.641  0.1563E+02  0.1312E+03
    -13.627  0.1555E+02  0.1315E+03
    -13.613  0.1546E+02  0.1317E+03
    -13.599  0.1538E+02  0.1319E+03
    -13.585  0.1530E+02  0.1321E+03
    -13.571  0.1522E+02  0.1323E+03
    -13.557  0.1515E+02  0.1325E+03
    -13.543  0.1509E+02  0.1327E+03
    -13.529  0.1503E+02  0.1330E+03
    -13.515  0.1498E+02  0.1332E+03
    -13.501  0.1494E+02  0.1334E+03
    -13.487  0.1490E+02  0.1336E+03
    -13.473  0.1488E+02  0.1338E+03
    -13.459  0.1485E+02  0.1340E+03
    -13.445  0.1484E+02  0.1342E+03
    -13.431  0.1482E+02  0.1344E+03
    -13.417  0.1481E+02  0.1346E+03
    -13.403  0.1480E+02  0.1348E+03
    -13.389  0.1479E+02  0.1350E+03
    -13.375  0.1478E+02  0.1352E+03
    -13.361  0.1477E+02  0.1354E+03
    -13.347  0.1476E+02  0.1357E+03
    -13.333  0.1475E+02  0.1359E+03
    -13.319  0.1473E+02  0.1361E+03
    -13.305  0.1472E+02  0.1363E+03
    -13.291  0.1471E+02  0.1365E+03
    -13.277  0.1469E+02  0.1367E+03
    -13.263  0.1468E+02  0.1369E+03
    -13.249  0.1467E+02  0.1371E+03
    -13.235  0.1466E+02  0.1373E+03
    -13.221  0.1465E+02  0.1375E+03
    -13.207  0.1464E+02  0.1377E+03
    -13.193  0.1463E+02  0.1379E+03
    -13.179  0.1462E+02  0.1381E+03
    -13.165  0.1461E+02  0.1383E+03
    -13.151  0.1460E+02  0.1385E+03
    -13.137  0.1458E+02  0.1387E+03
    -13.123  0.1456E+02  0.1389E+03
    -13.109  0.1454E+02  0.1391E+03
    -13.095  0.1452E+02  0.1393E+03
    -13.081  0.1449E+02  0.1395E+03
    -13.067  0.1446E+02  0.1398E+03
    -13.053  0.1443E+02  0.1400E+03
    -13.039  0.1439E+02  0.1402E+03
    -13.025  0.1436E+02  0.1404E+03
    -13.011  0.1433E+02  0.1406E+03
    -12.997  0.1430E+02  0.1408E+03
    -12.983  0.1428E+02  0.1410E+03
    -12.969  0.1427E+02  0.1412E+03
    -12.955  0.1427E+02  0.1414E+03
    -12.941  0.1428E+02  0.1416E+03
    -12.927  0.1431E+02  0.1418E+03
    -12.913  0.1435E+02  0.1420E+03
    -12.899  0.1441E+02  0.1422E+03
    -12.885  0.1448E+02  0.1424E+03
    -12.871  0.1458E+02  0.1426E+03
    -12.857  0.1469E+02  0.1428E+03
    -12.843  0.1483E+02  0.1430E+03
    -12.829  0.1499E+02  0.1432E+03
    -12.815  0.1517E+02  0.1434E+03
    -12.801  0.1538E+02  0.1436E+03
    -12.787  0.1560E+02  0.1438E+03
    -12.773  0.1585E+02  0.1441E+03
    -12.759  0.1613E+02  0.1443E+03
    -12.745  0.1642E+02  0.1445E+03
    -12.731  0.1674E+02  0.1447E+03