 192 192   0   0
  0.5027553E+02  0.2503946E-08  0.1927538E-08  0.2000000E-08  0.5000000E-15
  1.000000000000000E-004
  CAR 
 unknown system                          
      3.58630815    -24.36650286 2000     -3.60867784      1.00000000
    -24.367  0.0000E+00  0.0000E+00
    -24.353  0.0000E+00  0.0000E+00
    -24.339  0.0000E+00  0.0000E+00
    -24.325  0.0000E+00  0.0000E+00
    -24.311  0.0000E+00  0.0000E+00
    -24.297  0.0000E+00  0.0000E+00
    -24.283  0.0000E+00  0.0000E+00
    -24.269  0.0000E+00  0.0000E+00
    -24.255  0.0000E+00  0.0000E+00
    -24.241  0.0000E+00  0.0000E+00
    -24.227  0.0000E+00  0.0000E+00
    -24.213  0.0000E+00  0.0000E+00
    -24.199  0.0000E+00  0.0000E+00
    -24.185  0.0000E+00  0.0000E+00
    -24.171  0.0000E+00  0.0000E+00
    -24.157  0.0000E+00  0.0000E+00
    -24.143  0.0000E+00  0.0000E+00
    -24.129  0.0000E+00  0.0000E+00
    -24.115  0.0000E+00  0.0000E+00
    -24.101  0.0000E+00  0.0000E+00
    -24.087  0.0000E+00  0.0000E+00
    -24.073  0.0000E+00  0.0000E+00
    -24.059  0.0000E+00  0.0000E+00
    -24.045  0.0000E+00  0.0000E+00
    -24.031  0.0000E+00  0.0000E+00
    -24.017  0.0000E+00  0.0000E+00
    -24.003  0.0000E+00  0.0000E+00
    -23.989  0.0000E+00  0.0000E+00
    -23.975  0.0000E+00  0.0000E+00
    -23.961  0.0000E+00  0.0000E+00
    -23.947  0.0000E+00  0.0000E+00
    -23.933  0.0000E+00  0.0000E+00
    -23.919  0.0000E+00  0.0000E+00
    -23.905  0.0000E+00  0.0000E+00
    -23.891  0.0000E+00  0.0000E+00
    -23.877  0.0000E+00  0.0000E+00
    -23.863  0.0000E+00  0.0000E+00
    -23.849  0.0000E+00  0.0000E+00
    -23.835  0.0000E+00  0.0000E+00
    -23.821  0.0000E+00  0.0000E+00
    -23.807  0.0000E+00  0.0000E+00
    -23.793  0.0000E+00  0.0000E+00
    -23.779  0.0000E+00  0.0000E+00
    -23.765  0.0000E+00  0.0000E+00
    -23.751  0.0000E+00  0.0000E+00
    -23.737  0.0000E+00  0.0000E+00
    -23.723  0.0000E+00  0.0000E+00
    -23.709  0.0000E+00  0.0000E+00
    -23.695  0.0000E+00  0.0000E+00
    -23.681  0.0000E+00  0.0000E+00
    -23.667  0.0000E+00  0.0000E+00
    -23.653  0.0000E+00  0.0000E+00
    -23.639  0.0000E+00  0.0000E+00
    -23.625  0.0000E+00  0.0000E+00
    -23.611  0.0000E+00  0.0000E+00
    -23.597  0.0000E+00  0.0000E+00
    -23.583  0.0000E+00  0.0000E+00
    -23.569  0.0000E+00  0.0000E+00
    -23.555  0.0000E+00  0.0000E+00
    -23.541  0.7940E-14  0.1110E-15
    -23.527  0.2647E-14  0.1480E-15
    -23.514  0.1853E-13  0.4071E-15
    -23.500  0.3440E-13  0.8882E-15
    -23.486  0.8028E-13  0.2011E-14
    -23.472  0.1738E-12  0.4441E-14
    -23.458  0.3714E-12  0.9634E-14
    -23.444  0.8063E-12  0.2091E-13
    -23.430  0.1714E-11  0.4488E-13
    -23.416  0.3609E-11  0.9534E-13
    -23.402  0.7535E-11  0.2007E-12
    -23.388  0.1557E-10  0.4184E-12
    -23.374  0.3186E-10  0.8638E-12
    -23.360  0.6456E-10  0.1767E-11
    -23.346  0.1296E-09  0.3578E-11
    -23.332  0.2575E-09  0.7179E-11
    -23.318  0.5067E-09  0.1426E-10
    -23.304  0.9875E-09  0.2807E-10
    -23.290  0.1906E-08  0.5472E-10
    -23.276  0.3642E-08  0.1057E-09
    -23.262  0.6894E-08  0.2021E-09
    -23.248  0.1292E-07  0.3827E-09
    -23.234  0.2398E-07  0.7181E-09
    -23.220  0.4408E-07  0.1334E-08
    -23.206  0.8023E-07  0.2456E-08
    -23.192  0.1446E-06  0.4479E-08
    -23.178  0.2581E-06  0.8088E-08
    -23.164  0.4563E-06  0.1447E-07
    -23.150  0.7987E-06  0.2564E-07
    -23.136  0.1385E-05  0.4500E-07
    -23.122  0.2377E-05  0.7824E-07
    -23.108  0.4041E-05  0.1347E-06
    -23.094  0.6803E-05  0.2299E-06
    -23.080  0.1134E-04  0.3885E-06
    -23.066  0.1872E-04  0.6503E-06
    -23.052  0.3061E-04  0.1078E-05
    -23.038  0.4957E-04  0.1772E-05
    -23.024  0.7948E-04  0.2883E-05
    -23.010  0.1262E-03  0.4648E-05
    -22.996  0.1985E-03  0.7423E-05
    -22.982  0.3090E-03  0.1174E-04
    -22.968  0.4766E-03  0.1841E-04
    -22.954  0.7279E-03  0.2859E-04
    -22.940  0.1101E-02  0.4398E-04
    -22.926  0.1649E-02  0.6704E-04
    -22.912  0.2446E-02  0.1013E-03
    -22.898  0.3594E-02  0.1515E-03
    -22.884  0.5229E-02  0.2246E-03
    -22.870  0.7534E-02  0.3300E-03
    -22.856  0.1075E-01  0.4803E-03
    -22.842  0.1520E-01  0.6928E-03
    -22.828  0.2127E-01  0.9903E-03
    -22.814  0.2949E-01  0.1403E-02
    -22.800  0.4050E-01  0.1969E-02
    -22.786  0.5508E-01  0.2739E-02
    -22.772  0.7419E-01  0.3777E-02
    -22.758  0.9900E-01  0.5161E-02
    -22.744  0.1309E+00  0.6991E-02
    -22.730  0.1713E+00  0.9386E-02
    -22.716  0.2222E+00  0.1249E-01
    -22.702  0.2855E+00  0.1649E-01
    -22.688  0.3635E+00  0.2157E-01
    -22.675  0.4584E+00  0.2798E-01
    -22.661  0.5729E+00  0.3599E-01
    -22.647  0.7095E+00  0.4591E-01
    -22.633  0.8707E+00  0.5808E-01
    -22.619  0.1059E+01  0.7289E-01
    -22.605  0.1277E+01  0.9075E-01
    -22.591  0.1526E+01  0.1121E+00
    -22.577  0.1808E+01  0.1374E+00
    -22.563  0.2125E+01  0.1671E+00
    -22.549  0.2476E+01  0.2017E+00
    -22.535  0.2862E+01  0.2417E+00
    -22.521  0.3282E+01  0.2876E+00
    -22.507  0.3736E+01  0.3398E+00
    -22.493  0.4220E+01  0.3989E+00
    -22.479  0.4734E+01  0.4651E+00
    -22.465  0.5273E+01  0.5388E+00
    -22.451  0.5836E+01  0.6204E+00
    -22.437  0.6418E+01  0.7101E+00
    -22.423  0.7016E+01  0.8082E+00
    -22.409  0.7628E+01  0.9149E+00
    -22.395  0.8251E+01  0.1030E+01
    -22.381  0.8880E+01  0.1154E+01
    -22.367  0.9516E+01  0.1288E+01
    -22.353  0.1015E+02  0.1430E+01
    -22.339  0.1080E+02  0.1580E+01
    -22.325  0.1144E+02  0.1740E+01
    -22.311  0.1208E+02  0.1909E+01
    -22.297  0.1273E+02  0.2087E+01
    -22.283  0.1338E+02  0.2275E+01
    -22.269  0.1403E+02  0.2471E+01
    -22.255  0.1468E+02  0.2676E+01
    -22.241  0.1534E+02  0.2891E+01
    -22.227  0.1600E+02  0.3114E+01
    -22.213  0.1667E+02  0.3348E+01
    -22.199  0.1735E+02  0.3590E+01
    -22.185  0.1804E+02  0.3842E+01
    -22.171  0.1873E+02  0.4104E+01
    -22.157  0.1944E+02  0.4376E+01
    -22.143  0.2015E+02  0.4658E+01
    -22.129  0.2087E+02  0.4950E+01
    -22.115  0.2159E+02  0.5252E+01
    -22.101  0.2232E+02  0.5564E+01
    -22.087  0.2304E+02  0.5886E+01
    -22.073  0.2376E+02  0.6218E+01
    -22.059  0.2447E+02  0.6560E+01
    -22.045  0.2516E+02  0.6912E+01
    -22.031  0.2581E+02  0.7273E+01
    -22.017  0.2643E+02  0.7643E+01
    -22.003  0.2700E+02  0.8020E+01
    -21.989  0.2750E+02  0.8405E+01
    -21.975  0.2794E+02  0.8795E+01
    -21.961  0.2829E+02  0.9191E+01
    -21.947  0.2855E+02  0.9590E+01
    -21.933  0.2872E+02  0.9992E+01
    -21.919  0.2878E+02  0.1039E+02
    -21.905  0.2873E+02  0.1080E+02
    -21.891  0.2858E+02  0.1120E+02
    -21.877  0.2832E+02  0.1159E+02
    -21.863  0.2796E+02  0.1198E+02
    -21.849  0.2751E+02  0.1237E+02
    -21.836  0.2697E+02  0.1274E+02
    -21.822  0.2635E+02  0.1311E+02
    -21.808  0.2568E+02  0.1347E+02
    -21.794  0.2496E+02  0.1382E+02
    -21.780  0.2421E+02  0.1416E+02
    -21.766  0.2345E+02  0.1449E+02
    -21.752  0.2269E+02  0.1481E+02
    -21.738  0.2195E+02  0.1511E+02
    -21.724  0.2124E+02  0.1541E+02
    -21.710  0.2058E+02  0.1570E+02
    -21.696  0.1998E+02  0.1598E+02
    -21.682  0.1945E+02  0.1625E+02
    -21.668  0.1899E+02  0.1651E+02
    -21.654  0.1863E+02  0.1677E+02
    -21.640  0.1835E+02  0.1703E+02
    -21.626  0.1818E+02  0.1729E+02
    -21.612  0.1810E+02  0.1754E+02
    -21.598  0.1812E+02  0.1779E+02
    -21.584  0.1824E+02  0.1805E+02
    -21.570  0.1845E+02  0.1830E+02
    -21.556  0.1875E+02  0.1857E+02
    -21.542  0.1914E+02  0.1883E+02
    -21.528  0.1960E+02  0.1911E+02
    -21.514  0.2013E+02  0.1939E+02
    -21.500  0.2072E+02  0.1968E+02
    -21.486  0.2135E+02  0.1998E+02
    -21.472  0.2202E+02  0.2029E+02
    -21.458  0.2272E+02  0.2060E+02
    -21.444  0.2342E+02  0.2093E+02
    -21.430  0.2413E+02  0.2127E+02
    -21.416  0.2482E+02  0.2162E+02
    -21.402  0.2549E+02  0.2197E+02
    -21.388  0.2612E+02  0.2234E+02
    -21.374  0.2671E+02  0.2271E+02
    -21.360  0.2724E+02  0.2309E+02
    -21.346  0.2771E+02  0.2348E+02
    -21.332  0.2812E+02  0.2387E+02
    -21.318  0.2845E+02  0.2427E+02
    -21.304  0.2871E+02  0.2467E+02
    -21.290  0.2890E+02  0.2508E+02
    -21.276  0.2902E+02  0.2548E+02
    -21.262  0.2906E+02  0.2589E+02
    -21.248  0.2904E+02  0.2629E+02
    -21.234  0.2895E+02  0.2670E+02
    -21.220  0.2881E+02  0.2710E+02
    -21.206  0.2862E+02  0.2750E+02
    -21.192  0.2838E+02  0.2790E+02
    -21.178  0.2811E+02  0.2829E+02
    -21.164  0.2781E+02  0.2868E+02
    -21.150  0.2749E+02  0.2907E+02
    -21.136  0.2716E+02  0.2945E+02
    -21.122  0.2682E+02  0.2982E+02
    -21.108  0.2649E+02  0.3019E+02
    -21.094  0.2616E+02  0.3056E+02
    -21.080  0.2585E+02  0.3092E+02
    -21.066  0.2556E+02  0.3128E+02
    -21.052  0.2529E+02  0.3163E+02
    -21.038  0.2506E+02  0.3198E+02
    -21.024  0.2485E+02  0.3233E+02
    -21.010  0.2468E+02  0.3267E+02
    -20.997  0.2454E+02  0.3302E+02
    -20.983  0.2444E+02  0.3336E+02
    -20.969  0.2438E+02  0.3370E+02
    -20.955  0.2435E+02  0.3404E+02
    -20.941  0.2435E+02  0.3438E+02
    -20.927  0.2438E+02  0.3472E+02
    -20.913  0.2444E+02  0.3506E+02
    -20.899  0.2453E+02  0.3540E+02
    -20.885  0.2464E+02  0.3575E+02
    -20.871  0.2477E+02  0.3610E+02
    -20.857  0.2492E+02  0.3644E+02
    -20.843  0.2508E+02  0.3679E+02
    -20.829  0.2525E+02  0.3715E+02
    -20.815  0.2544E+02  0.3750E+02
    -20.801  0.2562E+02  0.3786E+02
    -20.787  0.2581E+02  0.3822E+02
    -20.773  0.2600E+02  0.3859E+02
    -20.759  0.2619E+02  0.3895E+02
    -20.745  0.2637E+02  0.3932E+02
    -20.731  0.2655E+02  0.3969E+02
    -20.717  0.2673E+02  0.4007E+02
    -20.703  0.2690E+02  0.4044E+02
    -20.689  0.2706E+02  0.4082E+02
    -20.675  0.2721E+02  0.4120E+02
    -20.661  0.2736E+02  0.4158E+02
    -20.647  0.2750E+02  0.4197E+02
    -20.633  0.2764E+02  0.4235E+02
    -20.619  0.2777E+02  0.4274E+02
    -20.605  0.2790E+02  0.4313E+02
    -20.591  0.2803E+02  0.4353E+02
    -20.577  0.2816E+02  0.4392E+02
    -20.563  0.2830E+02  0.4431E+02
    -20.549  0.2843E+02  0.4471E+02
    -20.535  0.2857E+02  0.4511E+02
    -20.521  0.2871E+02  0.4551E+02
    -20.507  0.2885E+02  0.4592E+02
    -20.493  0.2899E+02  0.4632E+02
    -20.479  0.2914E+02  0.4673E+02
    -20.465  0.2928E+02  0.4714E+02
    -20.451  0.2942E+02  0.4755E+02
    -20.437  0.2956E+02  0.4796E+02
    -20.423  0.2969E+02  0.4838E+02
    -20.409  0.2982E+02  0.4880E+02
    -20.395  0.2993E+02  0.4921E+02
    -20.381  0.3004E+02  0.4963E+02
    -20.367  0.3013E+02  0.5006E+02
    -20.353  0.3020E+02  0.5048E+02
    -20.339  0.3027E+02  0.5090E+02
    -20.325  0.3031E+02  0.5133E+02
    -20.311  0.3035E+02  0.5175E+02
    -20.297  0.3037E+02  0.5217E+02
    -20.283  0.3038E+02  0.5260E+02
    -20.269  0.3038E+02  0.5302E+02
    -20.255  0.3037E+02  0.5345E+02
    -20.241  0.3036E+02  0.5387E+02
    -20.227  0.3034E+02  0.5430E+02
    -20.213  0.3033E+02  0.5472E+02
    -20.199  0.3033E+02  0.5515E+02
    -20.185  0.3034E+02  0.5557E+02
    -20.171  0.3036E+02  0.5599E+02
    -20.158  0.3040E+02  0.5642E+02
    -20.144  0.3045E+02  0.5685E+02
    -20.130  0.3052E+02  0.5727E+02
    -20.116  0.3062E+02  0.5770E+02
    -20.102  0.3073E+02  0.5813E+02
    -20.088  0.3086E+02  0.5856E+02
    -20.074  0.3101E+02  0.5900E+02
    -20.060  0.3117E+02  0.5943E+02
    -20.046  0.3135E+02  0.5987E+02
    -20.032  0.3152E+02  0.6031E+02
    -20.018  0.3171E+02  0.6075E+02
    -20.004  0.3189E+02  0.6120E+02
    -19.990  0.3206E+02  0.6165E+02
    -19.976  0.3223E+02  0.6210E+02
    -19.962  0.3238E+02  0.6255E+02
    -19.948  0.3252E+02  0.6301E+02
    -19.934  0.3264E+02  0.6346E+02
    -19.920  0.3275E+02  0.6392E+02
    -19.906  0.3284E+02  0.6438E+02
    -19.892  0.3291E+02  0.6484E+02
    -19.878  0.3296E+02  0.6530E+02
    -19.864  0.3300E+02  0.6576E+02
    -19.850  0.3302E+02  0.6622E+02
    -19.836  0.3302E+02  0.6669E+02
    -19.822  0.3300E+02  0.6715E+02
    -19.808  0.3297E+02  0.6761E+02
    -19.794  0.3292E+02  0.6807E+02
    -19.780  0.3286E+02  0.6853E+02
    -19.766  0.3277E+02  0.6899E+02
    -19.752  0.3266E+02  0.6944E+02
    -19.738  0.3253E+02  0.6990E+02
    -19.724  0.3238E+02  0.7035E+02
    -19.710  0.3220E+02  0.7080E+02
    -19.696  0.3200E+02  0.7125E+02
    -19.682  0.3177E+02  0.7169E+02
    -19.668  0.3151E+02  0.7213E+02
    -19.654  0.3122E+02  0.7257E+02
    -19.640  0.3091E+02  0.7300E+02
    -19.626  0.3058E+02  0.7343E+02
    -19.612  0.3022E+02  0.7385E+02
    -19.598  0.2985E+02  0.7427E+02
    -19.584  0.2947E+02  0.7468E+02
    -19.570  0.2909E+02  0.7509E+02
    -19.556  0.2870E+02  0.7549E+02
    -19.542  0.2833E+02  0.7589E+02
    -19.528  0.2796E+02  0.7628E+02
    -19.514  0.2761E+02  0.7666E+02
    -19.500  0.2729E+02  0.7704E+02
    -19.486  0.2699E+02  0.7742E+02
    -19.472  0.2673E+02  0.7780E+02
    -19.458  0.2650E+02  0.7817E+02
    -19.444  0.2630E+02  0.7853E+02
    -19.430  0.2615E+02  0.7890E+02
    -19.416  0.2603E+02  0.7926E+02
    -19.402  0.2596E+02  0.7963E+02
    -19.388  0.2593E+02  0.7999E+02
    -19.374  0.2594E+02  0.8035E+02
    -19.360  0.2599E+02  0.8072E+02
    -19.346  0.2608E+02  0.8108E+02
    -19.332  0.2622E+02  0.8145E+02
    -19.318  0.2639E+02  0.8182E+02
    -19.305  0.2660E+02  0.8219E+02
    -19.291  0.2685E+02  0.8256E+02
    -19.277  0.2713E+02  0.8294E+02
    -19.263  0.2746E+02  0.8333E+02
    -19.249  0.2781E+02  0.8372E+02
    -19.235  0.2821E+02  0.8411E+02
    -19.221  0.2863E+02  0.8451E+02
    -19.207  0.2908E+02  0.8492E+02
    -19.193  0.2955E+02  0.8533E+02
    -19.179  0.3004E+02  0.8575E+02
    -19.165  0.3054E+02  0.8618E+02
    -19.151  0.3105E+02  0.8661E+02
    -19.137  0.3156E+02  0.8705E+02
    -19.123  0.3207E+02  0.8750E+02
    -19.109  0.3256E+02  0.8796E+02
    -19.095  0.3302E+02  0.8842E+02
    -19.081  0.3346E+02  0.8889E+02
    -19.067  0.3387E+02  0.8936E+02
    -19.053  0.3424E+02  0.8984E+02
    -19.039  0.3456E+02  0.9032E+02
    -19.025  0.3484E+02  0.9081E+02
    -19.011  0.3507E+02  0.9130E+02
    -18.997  0.3524E+02  0.9179E+02
    -18.983  0.3537E+02  0.9229E+02
    -18.969  0.3546E+02  0.9278E+02
    -18.955  0.3549E+02  0.9328E+02
    -18.941  0.3549E+02  0.9377E+02
    -18.927  0.3545E+02  0.9427E+02
    -18.913  0.3537E+02  0.9477E+02
    -18.899  0.3527E+02  0.9526E+02
    -18.885  0.3515E+02  0.9575E+02
    -18.871  0.3500E+02  0.9624E+02
    -18.857  0.3484E+02  0.9673E+02
    -18.843  0.3467E+02  0.9721E+02
    -18.829  0.3449E+02  0.9769E+02
    -18.815  0.3430E+02  0.9817E+02
    -18.801  0.3411E+02  0.9865E+02
    -18.787  0.3391E+02  0.9912E+02
    -18.773  0.3371E+02  0.9960E+02
    -18.759  0.3350E+02  0.1001E+03
    -18.745  0.3330E+02  0.1005E+03
    -18.731  0.3309E+02  0.1010E+03
    -18.717  0.3287E+02  0.1015E+03
    -18.703  0.3266E+02  0.1019E+03
    -18.689  0.3244E+02  0.1024E+03
    -18.675  0.3222E+02  0.1028E+03
    -18.661  0.3199E+02  0.1033E+03
    -18.647  0.3177E+02  0.1037E+03
    -18.633  0.3155E+02  0.1041E+03
    -18.619  0.3133E+02  0.1046E+03
    -18.605  0.3112E+02  0.1050E+03
    -18.591  0.3091E+02  0.1055E+03
    -18.577  0.3071E+02  0.1059E+03
    -18.563  0.3053E+02  0.1063E+03
    -18.549  0.3036E+02  0.1067E+03
    -18.535  0.3021E+02  0.1072E+03
    -18.521  0.3007E+02  0.1076E+03
    -18.507  0.2995E+02  0.1080E+03
    -18.493  0.2986E+02  0.1084E+03
    -18.479  0.2978E+02  0.1088E+03
    -18.466  0.2973E+02  0.1092E+03
    -18.452  0.2970E+02  0.1097E+03
    -18.438  0.2970E+02  0.1101E+03
    -18.424  0.2971E+02  0.1105E+03
    -18.410  0.2975E+02  0.1109E+03
    -18.396  0.2981E+02  0.1113E+03
    -18.382  0.2989E+02  0.1117E+03
    -18.368  0.3000E+02  0.1122E+03
    -18.354  0.3013E+02  0.1126E+03
    -18.340  0.3028E+02  0.1130E+03
    -18.326  0.3045E+02  0.1134E+03
    -18.312  0.3064E+02  0.1139E+03
    -18.298  0.3086E+02  0.1143E+03
    -18.284  0.3109E+02  0.1147E+03
    -18.270  0.3135E+02  0.1152E+03
    -18.256  0.3162E+02  0.1156E+03
    -18.242  0.3191E+02  0.1161E+03
    -18.228  0.3221E+02  0.1165E+03
    -18.214  0.3251E+02  0.1170E+03
    -18.200  0.3282E+02  0.1174E+03
    -18.186  0.3313E+02  0.1179E+03
    -18.172  0.3343E+02  0.1183E+03
    -18.158  0.3373E+02  0.1188E+03
    -18.144  0.3400E+02  0.1193E+03
    -18.130  0.3426E+02  0.1198E+03
    -18.116  0.3449E+02  0.1203E+03
    -18.102  0.3469E+02  0.1207E+03
    -18.088  0.3486E+02  0.1212E+03
    -18.074  0.3499E+02  0.1217E+03
    -18.060  0.3510E+02  0.1222E+03
    -18.046  0.3517E+02  0.1227E+03
    -18.032  0.3520E+02  0.1232E+03
    -18.018  0.3520E+02  0.1237E+03
    -18.004  0.3517E+02  0.1242E+03
    -17.990  0.3512E+02  0.1247E+03
    -17.976  0.3504E+02  0.1252E+03
    -17.962  0.3494E+02  0.1256E+03
    -17.948  0.3482E+02  0.1261E+03
    -17.934  0.3468E+02  0.1266E+03
    -17.920  0.3454E+02  0.1271E+03
    -17.906  0.3438E+02  0.1276E+03
    -17.892  0.3422E+02  0.1281E+03
    -17.878  0.3405E+02  0.1285E+03
    -17.864  0.3388E+02  0.1290E+03
    -17.850  0.3370E+02  0.1295E+03
    -17.836  0.3353E+02  0.1299E+03
    -17.822  0.3335E+02  0.1304E+03
    -17.808  0.3317E+02  0.1309E+03
    -17.794  0.3299E+02  0.1313E+03
    -17.780  0.3281E+02  0.1318E+03
    -17.766  0.3264E+02  0.1323E+03
    -17.752  0.3246E+02  0.1327E+03
    -17.738  0.3229E+02  0.1332E+03
    -17.724  0.3213E+02  0.1336E+03
    -17.710  0.3197E+02  0.1341E+03
    -17.696  0.3181E+02  0.1345E+03
    -17.682  0.3166E+02  0.1349E+03
    -17.668  0.3153E+02  0.1354E+03
    -17.654  0.3139E+02  0.1358E+03
    -17.640  0.3127E+02  0.1363E+03
    -17.627  0.3116E+02  0.1367E+03
    -17.613  0.3106E+02  0.1371E+03
    -17.599  0.3097E+02  0.1376E+03
    -17.585  0.3088E+02  0.1380E+03
    -17.571  0.3081E+02  0.1384E+03
    -17.557  0.3074E+02  0.1389E+03
    -17.543  0.3069E+02  0.1393E+03
    -17.529  0.3064E+02  0.1397E+03
    -17.515  0.3061E+02  0.1401E+03
    -17.501  0.3058E+02  0.1406E+03
    -17.487  0.3057E+02  0.1410E+03
    -17.473  0.3057E+02  0.1414E+03
    -17.459  0.3058E+02  0.1419E+03
    -17.445  0.3061E+02  0.1423E+03
    -17.431  0.3064E+02  0.1427E+03
    -17.417  0.3069E+02  0.1431E+03
    -17.403  0.3076E+02  0.1436E+03
    -17.389  0.3084E+02  0.1440E+03
    -17.375  0.3092E+02  0.1444E+03
    -17.361  0.3102E+02  0.1449E+03
    -17.347  0.3112E+02  0.1453E+03
    -17.333  0.3123E+02  0.1457E+03
    -17.319  0.3133E+02  0.1462E+03
    -17.305  0.3142E+02  0.1466E+03
    -17.291  0.3150E+02  0.1471E+03
    -17.277  0.3157E+02  0.1475E+03
    -17.263  0.3161E+02  0.1479E+03
    -17.249  0.3162E+02  0.1484E+03
    -17.235  0.3160E+02  0.1488E+03
    -17.221  0.3155E+02  0.1493E+03
    -17.207  0.3146E+02  0.1497E+03
    -17.193  0.3132E+02  0.1501E+03
    -17.179  0.3115E+02  0.1506E+03
    -17.165  0.3093E+02  0.1510E+03
    -17.151  0.3068E+02  0.1514E+03
    -17.137  0.3039E+02  0.1519E+03
    -17.123  0.3008E+02  0.1523E+03
    -17.109  0.2974E+02  0.1527E+03
    -17.095  0.2940E+02  0.1531E+03
    -17.081  0.2905E+02  0.1535E+03
    -17.067  0.2870E+02  0.1539E+03
    -17.053  0.2837E+02  0.1543E+03
    -17.039  0.2807E+02  0.1547E+03
    -17.025  0.2780E+02  0.1551E+03
    -17.011  0.2757E+02  0.1555E+03
    -16.997  0.2740E+02  0.1559E+03
    -16.983  0.2728E+02  0.1562E+03
    -16.969  0.2723E+02  0.1566E+03
    -16.955  0.2724E+02  0.1570E+03
    -16.941  0.2731E+02  0.1574E+03
    -16.927  0.2746E+02  0.1578E+03
    -16.913  0.2766E+02  0.1582E+03
    -16.899  0.2792E+02  0.1586E+03
    -16.885  0.2823E+02  0.1589E+03
    -16.871  0.2858E+02  0.1593E+03
    -16.857  0.2896E+02  0.1598E+03
    -16.843  0.2937E+02  0.1602E+03
    -16.829  0.2978E+02  0.1606E+03
    -16.815  0.3019E+02  0.1610E+03
    -16.801  0.3059E+02  0.1614E+03
    -16.788  0.3097E+02  0.1619E+03
    -16.774  0.3132E+02  0.1623E+03
    -16.760  0.3163E+02  0.1627E+03
    -16.746  0.3191E+02  0.1632E+03
    -16.732  0.3214E+02  0.1636E+03
    -16.718  0.3233E+02  0.1641E+03
    -16.704  0.3247E+02  0.1645E+03
    -16.690  0.3257E+02  0.1650E+03
    -16.676  0.3262E+02  0.1655E+03
    -16.662  0.3264E+02  0.1659E+03
    -16.648  0.3262E+02  0.1664E+03
    -16.634  0.3258E+02  0.1668E+03
    -16.620  0.3251E+02  0.1673E+03
    -16.606  0.3242E+02  0.1677E+03
    -16.592  0.3233E+02  0.1682E+03
    -16.578  0.3222E+02  0.1686E+03
    -16.564  0.3212E+02  0.1691E+03
    -16.550  0.3201E+02  0.1695E+03
    -16.536  0.3191E+02  0.1700E+03
    -16.522  0.3183E+02  0.1704E+03
    -16.508  0.3175E+02  0.1709E+03
    -16.494  0.3169E+02  0.1713E+03
    -16.480  0.3164E+02  0.1718E+03
    -16.466  0.3161E+02  0.1722E+03
    -16.452  0.3160E+02  0.1726E+03
    -16.438  0.3159E+02  0.1731E+03
    -16.424  0.3161E+02  0.1735E+03
    -16.410  0.3163E+02  0.1740E+03
    -16.396  0.3166E+02  0.1744E+03
    -16.382  0.3170E+02  0.1748E+03
    -16.368  0.3174E+02  0.1753E+03
    -16.354  0.3178E+02  0.1757E+03
    -16.340  0.3182E+02  0.1762E+03
    -16.326  0.3185E+02  0.1766E+03
    -16.312  0.3188E+02  0.1771E+03
    -16.298  0.3189E+02  0.1775E+03
    -16.284  0.3189E+02  0.1780E+03
    -16.270  0.3188E+02  0.1784E+03
    -16.256  0.3185E+02  0.1789E+03
    -16.242  0.3181E+02  0.1793E+03
    -16.228  0.3176E+02  0.1797E+03
    -16.214  0.3169E+02  0.1802E+03
    -16.200  0.3162E+02  0.1806E+03
    -16.186  0.3153E+02  0.1811E+03
    -16.172  0.3145E+02  0.1815E+03
    -16.158  0.3136E+02  0.1819E+03
    -16.144  0.3127E+02  0.1824E+03
    -16.130  0.3118E+02  0.1828E+03
    -16.116  0.3110E+02  0.1833E+03
    -16.102  0.3102E+02  0.1837E+03
    -16.088  0.3095E+02  0.1841E+03
    -16.074  0.3089E+02  0.1846E+03
    -16.060  0.3084E+02  0.1850E+03
    -16.046  0.3081E+02  0.1854E+03
    -16.032  0.3078E+02  0.1858E+03
    -16.018  0.3077E+02  0.1863E+03
    -16.004  0.3078E+02  0.1867E+03
    -15.990  0.3079E+02  0.1871E+03
    -15.976  0.3082E+02  0.1876E+03
    -15.962  0.3087E+02  0.1880E+03
    -15.948  0.3093E+02  0.1884E+03
    -15.935  0.3100E+02  0.1889E+03
    -15.921  0.3108E+02  0.1893E+03
    -15.907  0.3118E+02  0.1897E+03
    -15.893  0.3128E+02  0.1902E+03
    -15.879  0.3139E+02  0.1906E+03
    -15.865  0.3150E+02  0.1911E+03
    -15.851  0.3161E+02  0.1915E+03
    -15.837  0.3171E+02  0.1919E+03
    -15.823  0.3181E+02  0.1924E+03
    -15.809  0.3189E+02  0.1928E+03
    -15.795  0.3195E+02  0.1933E+03
    -15.781  0.3198E+02  0.1937E+03
    -15.767  0.3198E+02  0.1942E+03
    -15.753  0.3194E+02  0.1946E+03
    -15.739  0.3187E+02  0.1951E+03
    -15.725  0.3175E+02  0.1955E+03
    -15.711  0.3160E+02  0.1960E+03
    -15.697  0.3140E+02  0.1964E+03
    -15.683  0.3116E+02  0.1968E+03
    -15.669  0.3089E+02  0.1973E+03
    -15.655  0.3059E+02  0.1977E+03
    -15.641  0.3027E+02  0.1981E+03
    -15.627  0.2993E+02  0.1985E+03
    -15.613  0.2958E+02  0.1989E+03
    -15.599  0.2924E+02  0.1993E+03
    -15.585  0.2891E+02  0.1998E+03
    -15.571  0.2859E+02  0.2002E+03
    -15.557  0.2831E+02  0.2005E+03
    -15.543  0.2807E+02  0.2009E+03
    -15.529  0.2786E+02  0.2013E+03
    -15.515  0.2771E+02  0.2017E+03
    -15.501  0.2761E+02  0.2021E+03
    -15.487  0.2756E+02  0.2025E+03
    -15.473  0.2756E+02  0.2029E+03
    -15.459  0.2762E+02  0.2033E+03
    -15.445  0.2772E+02  0.2036E+03
    -15.431  0.2788E+02  0.2040E+03
    -15.417  0.2807E+02  0.2044E+03
    -15.403  0.2830E+02  0.2048E+03
    -15.389  0.2855E+02  0.2052E+03
    -15.375  0.2883E+02  0.2056E+03
    -15.361  0.2912E+02  0.2060E+03
    -15.347  0.2942E+02  0.2064E+03
    -15.333  0.2971E+02  0.2069E+03
    -15.319  0.3000E+02  0.2073E+03
    -15.305  0.3028E+02  0.2077E+03
    -15.291  0.3055E+02  0.2081E+03
    -15.277  0.3079E+02  0.2086E+03
    -15.263  0.3101E+02  0.2090E+03
    -15.249  0.3120E+02  0.2094E+03
    -15.235  0.3136E+02  0.2099E+03
    -15.221  0.3150E+02  0.2103E+03
    -15.207  0.3161E+02  0.2108E+03
    -15.193  0.3170E+02  0.2112E+03
    -15.179  0.3177E+02  0.2116E+03
    -15.165  0.3181E+02  0.2121E+03
    -15.151  0.3184E+02  0.2125E+03
    -15.137  0.3186E+02  0.2130E+03
    -15.123  0.3187E+02  0.2134E+03
    -15.109  0.3188E+02  0.2139E+03
    -15.096  0.3188E+02  0.2143E+03
    -15.082  0.3189E+02  0.2148E+03
    -15.068  0.3190E+02  0.2152E+03
    -15.054  0.3192E+02  0.2157E+03
    -15.040  0.3194E+02  0.2161E+03
    -15.026  0.3198E+02  0.2165E+03
    -15.012  0.3203E+02  0.2170E+03
    -14.998  0.3208E+02  0.2174E+03
    -14.984  0.3215E+02  0.2179E+03
    -14.970  0.3222E+02  0.2183E+03
    -14.956  0.3230E+02  0.2188E+03
    -14.942  0.3238E+02  0.2192E+03
    -14.928  0.3247E+02  0.2197E+03
    -14.914  0.3256E+02  0.2202E+03
    -14.900  0.3266E+02  0.2206E+03
    -14.886  0.3275E+02  0.2211E+03
    -14.872  0.3284E+02  0.2215E+03
    -14.858  0.3294E+02  0.2220E+03
    -14.844  0.3303E+02  0.2225E+03
    -14.830  0.3312E+02  0.2229E+03
    -14.816  0.3321E+02  0.2234E+03
    -14.802  0.3330E+02  0.2238E+03
    -14.788  0.3339E+02  0.2243E+03
    -14.774  0.3348E+02  0.2248E+03
    -14.760  0.3357E+02  0.2253E+03
    -14.746  0.3365E+02  0.2257E+03
    -14.732  0.3372E+02  0.2262E+03
    -14.718  0.3380E+02  0.2267E+03
    -14.704  0.3386E+02  0.2271E+03
    -14.690  0.3391E+02  0.2276E+03
    -14.676  0.3396E+02  0.2281E+03
    -14.662  0.3399E+02  0.2286E+03
    -14.648  0.3400E+02  0.2290E+03
    -14.634  0.3400E+02  0.2295E+03
    -14.620  0.3399E+02  0.2300E+03
    -14.606  0.3396E+02  0.2305E+03
    -14.592  0.3392E+02  0.2309E+03
    -14.578  0.3387E+02  0.2314E+03
    -14.564  0.3380E+02  0.2319E+03
    -14.550  0.3373E+02  0.2324E+03
    -14.536  0.3364E+02  0.2328E+03
    -14.522  0.3356E+02  0.2333E+03
    -14.508  0.3347E+02  0.2338E+03
    -14.494  0.3338E+02  0.2342E+03
    -14.480  0.3329E+02  0.2347E+03
    -14.466  0.3321E+02  0.2352E+03
    -14.452  0.3313E+02  0.2356E+03
    -14.438  0.3306E+02  0.2361E+03
    -14.424  0.3300E+02  0.2366E+03
    -14.410  0.3295E+02  0.2370E+03
    -14.396  0.3291E+02  0.2375E+03
    -14.382  0.3287E+02  0.2379E+03
    -14.368  0.3284E+02  0.2384E+03
    -14.354  0.3281E+02  0.2388E+03
    -14.340  0.3279E+02  0.2393E+03
    -14.326  0.3276E+02  0.2398E+03
    -14.312  0.3274E+02  0.2402E+03
    -14.298  0.3271E+02  0.2407E+03
    -14.284  0.3268E+02  0.2411E+03
    -14.270  0.3264E+02  0.2416E+03
    -14.257  0.3258E+02  0.2420E+03
    -14.243  0.3252E+02  0.2425E+03
    -14.229  0.3244E+02  0.2430E+03
    -14.215  0.3235E+02  0.2434E+03
    -14.201  0.3224E+02  0.2439E+03
    -14.187  0.3212E+02  0.2443E+03
    -14.173  0.3199E+02  0.2448E+03
    -14.159  0.3185E+02  0.2452E+03
    -14.145  0.3171E+02  0.2456E+03
    -14.131  0.3156E+02  0.2461E+03
    -14.117  0.3141E+02  0.2465E+03
    -14.103  0.3126E+02  0.2470E+03
    -14.089  0.3112E+02  0.2474E+03
    -14.075  0.3098E+02  0.2478E+03
    -14.061  0.3086E+02  0.2483E+03
    -14.047  0.3075E+02  0.2487E+03
    -14.033  0.3066E+02  0.2491E+03
    -14.019  0.3057E+02  0.2496E+03
    -14.005  0.3051E+02  0.2500E+03
    -13.991  0.3045E+02  0.2504E+03
    -13.977  0.3041E+02  0.2508E+03
    -13.963  0.3038E+02  0.2513E+03
    -13.949  0.3036E+02  0.2517E+03
    -13.935  0.3035E+02  0.2521E+03
    -13.921  0.3034E+02  0.2525E+03
    -13.907  0.3034E+02  0.2530E+03
    -13.893  0.3034E+02  0.2534E+03
    -13.879  0.3034E+02  0.2538E+03
    -13.865  0.3035E+02  0.2542E+03
    -13.851  0.3035E+02  0.2546E+03
    -13.837  0.3035E+02  0.2551E+03
    -13.823  0.3036E+02  0.2555E+03
    -13.809  0.3036E+02  0.2559E+03
    -13.795  0.3037E+02  0.2563E+03
    -13.781  0.3038E+02  0.2568E+03
    -13.767  0.3040E+02  0.2572E+03
    -13.753  0.3041E+02  0.2576E+03
    -13.739  0.3044E+02  0.2580E+03
    -13.725  0.3046E+02  0.2585E+03
    -13.711  0.3050E+02  0.2589E+03
    -13.697  0.3054E+02  0.2593E+03
    -13.683  0.3059E+02  0.2598E+03
    -13.669  0.3064E+02  0.2602E+03
    -13.655  0.3070E+02  0.2606E+03
    -13.641  0.3077E+02  0.2610E+03
    -13.627  0.3084E+02  0.2615E+03
    -13.613  0.3092E+02  0.2619E+03
    -13.599  0.3100E+02  0.2623E+03
    -13.585  0.3109E+02  0.2628E+03
    -13.571  0.3119E+02  0.2632E+03
    -13.557  0.3129E+02  0.2636E+03
    -13.543  0.3140E+02  0.2641E+03
    -13.529  0.3152E+02  0.2645E+03
    -13.515  0.3164E+02  0.2650E+03
    -13.501  0.3177E+02  0.2654E+03
    -13.487  0.3191E+02  0.2659E+03
    -13.473  0.3206E+02  0.2663E+03
    -13.459  0.3221E+02  0.2668E+03
    -13.445  0.3237E+02  0.2672E+03
    -13.431  0.3252E+02  0.2677E+03
    -13.418  0.3268E+02  0.2681E+03
    -13.404  0.3284E+02  0.2686E+03
    -13.390  0.3298E+02  0.2690E+03
    -13.376  0.3312E+02  0.2695E+03
    -13.362  0.3325E+02  0.2700E+03
    -13.348  0.3336E+02  0.2704E+03
    -13.334  0.3345E+02  0.2709E+03
    -13.320  0.3352E+02  0.2714E+03
    -13.306  0.3356E+02  0.2718E+03
    -13.292  0.3358E+02  0.2723E+03
    -13.278  0.3358E+02  0.2728E+03
    -13.264  0.3355E+02  0.2733E+03
    -13.250  0.3350E+02  0.2737E+03
    -13.236  0.3342E+02  0.2742E+03
    -13.222  0.3333E+02  0.2747E+03
    -13.208  0.3322E+02  0.2751E+03
    -13.194  0.3309E+02  0.2756E+03
    -13.180  0.3296E+02  0.2760E+03
    -13.166  0.3283E+02  0.2765E+03
    -13.152  0.3269E+02  0.2770E+03
    -13.138  0.3256E+02  0.2774E+03
    -13.124  0.3244E+02  0.2779E+03
    -13.110  0.3233E+02  0.2783E+03
    -13.096  0.3225E+02  0.2788E+03
    -13.082  0.3219E+02  0.2792E+03
    -13.068  0.3216E+02  0.2797E+03
    -13.054  0.3216E+02  0.2801E+03
    -13.040  0.3220E+02  0.2806E+03
    -13.026  0.3228E+02  0.2810E+03
    -13.012  0.3240E+02  0.2815E+03
    -12.998  0.3256E+02  0.2819E+03
    -12.984  0.3275E+02  0.2824E+03
    -12.970  0.3299E+02  0.2828E+03
    -12.956  0.3326E+02  0.2833E+03
    -12.942  0.3356E+02  0.2838E+03
    -12.928  0.3388E+02  0.2843E+03
    -12.914  0.3422E+02  0.2847E+03
    -12.900  0.3458E+02  0.2852E+03
    -12.886  0.3495E+02  0.2857E+03
    -12.872  0.3531E+02  0.2862E+03
    -12.858  0.3567E+02  0.2867E+03
    -12.844  0.3601E+02  0.2872E+03
    -12.830  0.3634E+02  0.2877E+03