 114 114   0   0
  0.5354713E+02  0.2098917E-08  0.1454172E-08  0.2000000E-08  0.5000000E-15
  1.000000000000000E-004
  CAR 
 unknown system                          
      3.19419923    -24.20325398 2000     -3.79944477      1.00000000
    -24.203  0.0000E+00  0.0000E+00
    -24.190  0.0000E+00  0.0000E+00
    -24.176  0.0000E+00  0.0000E+00
    -24.162  0.0000E+00  0.0000E+00
    -24.148  0.0000E+00  0.0000E+00
    -24.135  0.0000E+00  0.0000E+00
    -24.121  0.0000E+00  0.0000E+00
    -24.107  0.0000E+00  0.0000E+00
    -24.094  0.0000E+00  0.0000E+00
    -24.080  0.0000E+00  0.0000E+00
    -24.066  0.0000E+00  0.0000E+00
    -24.052  0.0000E+00  0.0000E+00
    -24.039  0.0000E+00  0.0000E+00
    -24.025  0.0000E+00  0.0000E+00
    -24.011  0.0000E+00  0.0000E+00
    -23.998  0.0000E+00  0.0000E+00
    -23.984  0.0000E+00  0.0000E+00
    -23.970  0.0000E+00  0.0000E+00
    -23.957  0.0000E+00  0.0000E+00
    -23.943  0.0000E+00  0.0000E+00
    -23.929  0.0000E+00  0.0000E+00
    -23.915  0.0000E+00  0.0000E+00
    -23.902  0.0000E+00  0.0000E+00
    -23.888  0.0000E+00  0.0000E+00
    -23.874  0.0000E+00  0.0000E+00
    -23.861  0.0000E+00  0.0000E+00
    -23.847  0.0000E+00  0.0000E+00
    -23.833  0.0000E+00  0.0000E+00
    -23.819  0.0000E+00  0.0000E+00
    -23.806  0.0000E+00  0.0000E+00
    -23.792  0.0000E+00  0.0000E+00
    -23.778  0.0000E+00  0.0000E+00
    -23.765  0.0000E+00  0.0000E+00
    -23.751  0.0000E+00  0.0000E+00
    -23.737  0.0000E+00  0.0000E+00
    -23.724  0.0000E+00  0.0000E+00
    -23.710  0.0000E+00  0.0000E+00
    -23.696  0.0000E+00  0.0000E+00
    -23.682  0.0000E+00  0.0000E+00
    -23.669  0.0000E+00  0.0000E+00
    -23.655  0.0000E+00  0.0000E+00
    -23.641  0.0000E+00  0.0000E+00
    -23.628  0.0000E+00  0.0000E+00
    -23.614  0.0000E+00  0.0000E+00
    -23.600  0.0000E+00  0.0000E+00
    -23.587  0.0000E+00  0.0000E+00
    -23.573  0.0000E+00  0.0000E+00
    -23.559  0.0000E+00  0.0000E+00
    -23.545  0.0000E+00  0.0000E+00
    -23.532  0.0000E+00  0.0000E+00
    -23.518  0.0000E+00  0.0000E+00
    -23.504  0.0000E+00  0.0000E+00
    -23.491  0.0000E+00  0.0000E+00
    -23.477  0.0000E+00  0.0000E+00
    -23.463  0.0000E+00  0.0000E+00
    -23.449  0.0000E+00  0.0000E+00
    -23.436  0.0000E+00  0.0000E+00
    -23.422  0.0000E+00  0.0000E+00
    -23.408  0.0000E+00  0.0000E+00
    -23.395  0.0000E+00  0.0000E+00
    -23.381  0.9001E-15  0.1234E-16
    -23.367  0.2700E-14  0.4934E-16
    -23.354  0.7200E-14  0.1480E-15
    -23.340  0.1080E-13  0.2961E-15
    -23.326  0.2700E-13  0.6661E-15
    -23.312  0.6120E-13  0.1505E-14
    -23.299  0.1332E-12  0.3331E-14
    -23.285  0.2781E-12  0.7142E-14
    -23.271  0.5913E-12  0.1525E-13
    -23.258  0.1248E-11  0.3236E-13
    -23.244  0.2596E-11  0.6793E-13
    -23.230  0.5365E-11  0.1415E-12
    -23.216  0.1097E-10  0.2918E-12
    -23.203  0.2224E-10  0.5967E-12
    -23.189  0.4466E-10  0.1209E-11
    -23.175  0.8886E-10  0.2427E-11
    -23.162  0.1752E-09  0.4827E-11
    -23.148  0.3422E-09  0.9517E-11
    -23.134  0.6622E-09  0.1859E-10
    -23.121  0.1270E-08  0.3600E-10
    -23.107  0.2413E-08  0.6907E-10
    -23.093  0.4542E-08  0.1313E-09
    -23.079  0.8473E-08  0.2475E-09
    -23.066  0.1566E-07  0.4621E-09
    -23.052  0.2868E-07  0.8552E-09
    -23.038  0.5205E-07  0.1569E-08
    -23.025  0.9358E-07  0.2851E-08
    -23.011  0.1667E-06  0.5136E-08
    -22.997  0.2943E-06  0.9169E-08
    -22.983  0.5148E-06  0.1622E-07
    -22.970  0.8921E-06  0.2845E-07
    -22.956  0.1532E-05  0.4945E-07
    -22.942  0.2607E-05  0.8518E-07
    -22.929  0.4396E-05  0.1454E-06
    -22.915  0.7344E-05  0.2461E-06
    -22.901  0.1216E-04  0.4127E-06
    -22.888  0.1995E-04  0.6861E-06
    -22.874  0.3242E-04  0.1130E-05
    -22.860  0.5222E-04  0.1846E-05
    -22.846  0.8335E-04  0.2988E-05
    -22.833  0.1318E-03  0.4795E-05
    -22.819  0.2066E-03  0.7626E-05
    -22.805  0.3208E-03  0.1202E-04
    -22.792  0.4937E-03  0.1879E-04
    -22.778  0.7528E-03  0.2911E-04
    -22.764  0.1138E-02  0.4470E-04
    -22.750  0.1703E-02  0.6805E-04
    -22.737  0.2528E-02  0.1027E-03
    -22.723  0.3717E-02  0.1536E-03
    -22.709  0.5416E-02  0.2279E-03
    -22.696  0.7821E-02  0.3351E-03
    -22.682  0.1119E-01  0.4885E-03
    -22.668  0.1587E-01  0.7060E-03
    -22.655  0.2231E-01  0.1012E-02
    -22.641  0.3107E-01  0.1438E-02
    -22.627  0.4288E-01  0.2025E-02
    -22.613  0.5866E-01  0.2829E-02
    -22.600  0.7952E-01  0.3919E-02
    -22.586  0.1068E+00  0.5383E-02
    -22.572  0.1423E+00  0.7333E-02
    -22.559  0.1877E+00  0.9906E-02
    -22.545  0.2456E+00  0.1327E-01
    -22.531  0.3183E+00  0.1763E-01
    -22.517  0.4090E+00  0.2324E-01
    -22.504  0.5209E+00  0.3038E-01
    -22.490  0.6576E+00  0.3939E-01
    -22.476  0.8228E+00  0.5067E-01
    -22.463  0.1021E+01  0.6466E-01
    -22.449  0.1255E+01  0.8186E-01
    -22.435  0.1529E+01  0.1028E+00
    -22.422  0.1848E+01  0.1281E+00
    -22.408  0.2214E+01  0.1585E+00
    -22.394  0.2629E+01  0.1945E+00
    -22.380  0.3095E+01  0.2369E+00
    -22.367  0.3614E+01  0.2865E+00
    -22.353  0.4183E+01  0.3438E+00
    -22.339  0.4802E+01  0.4096E+00
    -22.326  0.5467E+01  0.4845E+00
    -22.312  0.6172E+01  0.5691E+00
    -22.298  0.6912E+01  0.6639E+00
    -22.284  0.7677E+01  0.7691E+00
    -22.271  0.8459E+01  0.8850E+00
    -22.257  0.9247E+01  0.1012E+01
    -22.243  0.1003E+02  0.1149E+01
    -22.230  0.1079E+02  0.1297E+01
    -22.216  0.1153E+02  0.1455E+01
    -22.202  0.1223E+02  0.1623E+01
    -22.189  0.1287E+02  0.1799E+01
    -22.175  0.1345E+02  0.1983E+01
    -22.161  0.1396E+02  0.2175E+01
    -22.147  0.1439E+02  0.2372E+01
    -22.134  0.1474E+02  0.2574E+01
    -22.120  0.1501E+02  0.2780E+01
    -22.106  0.1519E+02  0.2988E+01
    -22.093  0.1529E+02  0.3198E+01
    -22.079  0.1531E+02  0.3407E+01
    -22.065  0.1526E+02  0.3617E+01
    -22.051  0.1515E+02  0.3824E+01
    -22.038  0.1499E+02  0.4030E+01
    -22.024  0.1478E+02  0.4232E+01
    -22.010  0.1454E+02  0.4432E+01
    -21.997  0.1428E+02  0.4627E+01
    -21.983  0.1402E+02  0.4819E+01
    -21.969  0.1377E+02  0.5008E+01
    -21.956  0.1353E+02  0.5194E+01
    -21.942  0.1332E+02  0.5376E+01
    -21.928  0.1315E+02  0.5556E+01
    -21.914  0.1302E+02  0.5735E+01
    -21.901  0.1295E+02  0.5912E+01
    -21.887  0.1293E+02  0.6090E+01
    -21.873  0.1296E+02  0.6267E+01
    -21.860  0.1306E+02  0.6446E+01
    -21.846  0.1321E+02  0.6627E+01
    -21.832  0.1341E+02  0.6811E+01
    -21.818  0.1366E+02  0.6998E+01
    -21.805  0.1395E+02  0.7189E+01
    -21.791  0.1428E+02  0.7385E+01
    -21.777  0.1464E+02  0.7586E+01
    -21.764  0.1502E+02  0.7792E+01
    -21.750  0.1541E+02  0.8003E+01
    -21.736  0.1580E+02  0.8219E+01
    -21.723  0.1619E+02  0.8441E+01
    -21.709  0.1657E+02  0.8668E+01
    -21.695  0.1693E+02  0.8901E+01
    -21.681  0.1727E+02  0.9137E+01
    -21.668  0.1758E+02  0.9378E+01
    -21.654  0.1786E+02  0.9623E+01
    -21.640  0.1810E+02  0.9871E+01
    -21.627  0.1831E+02  0.1012E+02
    -21.613  0.1848E+02  0.1038E+02
    -21.599  0.1861E+02  0.1063E+02
    -21.585  0.1870E+02  0.1089E+02
    -21.572  0.1875E+02  0.1114E+02
    -21.558  0.1877E+02  0.1140E+02
    -21.544  0.1876E+02  0.1166E+02
    -21.531  0.1871E+02  0.1191E+02
    -21.517  0.1863E+02  0.1217E+02
    -21.503  0.1853E+02  0.1242E+02
    -21.490  0.1840E+02  0.1268E+02
    -21.476  0.1824E+02  0.1293E+02
    -21.462  0.1807E+02  0.1317E+02
    -21.448  0.1788E+02  0.1342E+02
    -21.435  0.1767E+02  0.1366E+02
    -21.421  0.1746E+02  0.1390E+02
    -21.407  0.1723E+02  0.1414E+02
    -21.394  0.1700E+02  0.1437E+02
    -21.380  0.1677E+02  0.1460E+02
    -21.366  0.1655E+02  0.1483E+02
    -21.352  0.1633E+02  0.1505E+02
    -21.339  0.1613E+02  0.1527E+02
    -21.325  0.1594E+02  0.1549E+02
    -21.311  0.1577E+02  0.1571E+02
    -21.298  0.1562E+02  0.1592E+02
    -21.284  0.1550E+02  0.1613E+02
    -21.270  0.1541E+02  0.1634E+02
    -21.257  0.1534E+02  0.1655E+02
    -21.243  0.1531E+02  0.1676E+02
    -21.229  0.1531E+02  0.1697E+02
    -21.215  0.1534E+02  0.1718E+02
    -21.202  0.1539E+02  0.1739E+02
    -21.188  0.1547E+02  0.1761E+02
    -21.174  0.1558E+02  0.1782E+02
    -21.161  0.1570E+02  0.1803E+02
    -21.147  0.1584E+02  0.1825E+02
    -21.133  0.1598E+02  0.1847E+02
    -21.119  0.1614E+02  0.1869E+02
    -21.106  0.1629E+02  0.1892E+02
    -21.092  0.1645E+02  0.1914E+02
    -21.078  0.1660E+02  0.1937E+02
    -21.065  0.1674E+02  0.1960E+02
    -21.051  0.1687E+02  0.1983E+02
    -21.037  0.1698E+02  0.2006E+02
    -21.024  0.1709E+02  0.2030E+02
    -21.010  0.1718E+02  0.2053E+02
    -20.996  0.1725E+02  0.2077E+02
    -20.982  0.1731E+02  0.2100E+02
    -20.969  0.1736E+02  0.2124E+02
    -20.955  0.1739E+02  0.2148E+02
    -20.941  0.1742E+02  0.2172E+02
    -20.928  0.1744E+02  0.2196E+02
    -20.914  0.1745E+02  0.2220E+02
    -20.900  0.1745E+02  0.2244E+02
    -20.887  0.1746E+02  0.2268E+02
    -20.873  0.1746E+02  0.2292E+02
    -20.859  0.1746E+02  0.2315E+02
    -20.845  0.1747E+02  0.2339E+02
    -20.832  0.1748E+02  0.2363E+02
    -20.818  0.1749E+02  0.2387E+02
    -20.804  0.1750E+02  0.2411E+02
    -20.791  0.1752E+02  0.2435E+02
    -20.777  0.1754E+02  0.2459E+02
    -20.763  0.1757E+02  0.2483E+02
    -20.749  0.1759E+02  0.2508E+02
    -20.736  0.1762E+02  0.2532E+02
    -20.722  0.1765E+02  0.2556E+02
    -20.708  0.1768E+02  0.2580E+02
    -20.695  0.1771E+02  0.2604E+02
    -20.681  0.1775E+02  0.2629E+02
    -20.667  0.1778E+02  0.2653E+02
    -20.654  0.1782E+02  0.2678E+02
    -20.640  0.1786E+02  0.2702E+02
    -20.626  0.1791E+02  0.2727E+02
    -20.612  0.1796E+02  0.2751E+02
    -20.599  0.1801E+02  0.2776E+02
    -20.585  0.1808E+02  0.2801E+02
    -20.571  0.1815E+02  0.2826E+02
    -20.558  0.1822E+02  0.2851E+02
    -20.544  0.1831E+02  0.2876E+02
    -20.530  0.1840E+02  0.2901E+02
    -20.516  0.1849E+02  0.2926E+02
    -20.503  0.1859E+02  0.2952E+02
    -20.489  0.1868E+02  0.2977E+02
    -20.475  0.1877E+02  0.3003E+02
    -20.462  0.1884E+02  0.3029E+02
    -20.448  0.1891E+02  0.3055E+02
    -20.434  0.1896E+02  0.3081E+02
    -20.421  0.1900E+02  0.3107E+02
    -20.407  0.1901E+02  0.3133E+02
    -20.393  0.1899E+02  0.3159E+02
    -20.379  0.1895E+02  0.3185E+02
    -20.366  0.1888E+02  0.3211E+02
    -20.352  0.1879E+02  0.3236E+02
    -20.338  0.1866E+02  0.3262E+02
    -20.325  0.1851E+02  0.3287E+02
    -20.311  0.1833E+02  0.3312E+02
    -20.297  0.1813E+02  0.3337E+02
    -20.283  0.1791E+02  0.3362E+02
    -20.270  0.1768E+02  0.3386E+02
    -20.256  0.1743E+02  0.3410E+02
    -20.242  0.1718E+02  0.3434E+02
    -20.229  0.1693E+02  0.3457E+02
    -20.215  0.1667E+02  0.3480E+02
    -20.201  0.1643E+02  0.3502E+02
    -20.188  0.1620E+02  0.3524E+02
    -20.174  0.1599E+02  0.3546E+02
    -20.160  0.1580E+02  0.3568E+02
    -20.146  0.1563E+02  0.3589E+02
    -20.133  0.1550E+02  0.3611E+02
    -20.119  0.1540E+02  0.3632E+02
    -20.105  0.1533E+02  0.3653E+02
    -20.092  0.1530E+02  0.3674E+02
    -20.078  0.1530E+02  0.3695E+02
    -20.064  0.1535E+02  0.3716E+02
    -20.050  0.1542E+02  0.3737E+02
    -20.037  0.1554E+02  0.3758E+02
    -20.023  0.1568E+02  0.3780E+02
    -20.009  0.1585E+02  0.3801E+02
    -19.996  0.1604E+02  0.3823E+02
    -19.982  0.1625E+02  0.3846E+02
    -19.968  0.1648E+02  0.3868E+02
    -19.955  0.1671E+02  0.3891E+02
    -19.941  0.1695E+02  0.3914E+02
    -19.927  0.1719E+02  0.3938E+02
    -19.913  0.1742E+02  0.3962E+02
    -19.900  0.1764E+02  0.3986E+02
    -19.886  0.1785E+02  0.4010E+02
    -19.872  0.1804E+02  0.4035E+02
    -19.859  0.1822E+02  0.4060E+02
    -19.845  0.1838E+02  0.4085E+02
    -19.831  0.1852E+02  0.4111E+02
    -19.817  0.1864E+02  0.4136E+02
    -19.804  0.1874E+02  0.4162E+02
    -19.790  0.1882E+02  0.4188E+02
    -19.776  0.1890E+02  0.4214E+02
    -19.763  0.1895E+02  0.4240E+02
    -19.749  0.1900E+02  0.4266E+02
    -19.735  0.1904E+02  0.4292E+02
    -19.722  0.1907E+02  0.4318E+02
    -19.708  0.1910E+02  0.4344E+02
    -19.694  0.1912E+02  0.4370E+02
    -19.680  0.1914E+02  0.4396E+02
    -19.667  0.1915E+02  0.4423E+02
    -19.653  0.1916E+02  0.4449E+02
    -19.639  0.1917E+02  0.4475E+02
    -19.626  0.1917E+02  0.4501E+02
    -19.612  0.1918E+02  0.4528E+02
    -19.598  0.1918E+02  0.4554E+02
    -19.584  0.1918E+02  0.4580E+02
    -19.571  0.1917E+02  0.4607E+02
    -19.557  0.1917E+02  0.4633E+02
    -19.543  0.1916E+02  0.4659E+02
    -19.530  0.1915E+02  0.4685E+02
    -19.516  0.1914E+02  0.4712E+02
    -19.502  0.1913E+02  0.4738E+02
    -19.489  0.1912E+02  0.4764E+02
    -19.475  0.1911E+02  0.4790E+02
    -19.461  0.1911E+02  0.4816E+02
    -19.447  0.1910E+02  0.4843E+02
    -19.434  0.1910E+02  0.4869E+02
    -19.420  0.1911E+02  0.4895E+02
    -19.406  0.1911E+02  0.4921E+02
    -19.393  0.1912E+02  0.4947E+02
    -19.379  0.1913E+02  0.4974E+02
    -19.365  0.1915E+02  0.5000E+02
    -19.351  0.1917E+02  0.5026E+02
    -19.338  0.1919E+02  0.5052E+02
    -19.324  0.1921E+02  0.5079E+02
    -19.310  0.1923E+02  0.5105E+02
    -19.297  0.1925E+02  0.5132E+02
    -19.283  0.1927E+02  0.5158E+02
    -19.269  0.1928E+02  0.5184E+02
    -19.256  0.1929E+02  0.5211E+02
    -19.242  0.1930E+02  0.5237E+02
    -19.228  0.1930E+02  0.5264E+02
    -19.214  0.1930E+02  0.5290E+02
    -19.201  0.1929E+02  0.5317E+02
    -19.187  0.1928E+02  0.5343E+02
    -19.173  0.1927E+02  0.5369E+02
    -19.160  0.1925E+02  0.5396E+02
    -19.146  0.1923E+02  0.5422E+02
    -19.132  0.1922E+02  0.5449E+02
    -19.118  0.1920E+02  0.5475E+02
    -19.105  0.1919E+02  0.5501E+02
    -19.091  0.1918E+02  0.5527E+02
    -19.077  0.1919E+02  0.5554E+02
    -19.064  0.1920E+02  0.5580E+02
    -19.050  0.1922E+02  0.5606E+02
    -19.036  0.1925E+02  0.5633E+02
    -19.023  0.1929E+02  0.5659E+02
    -19.009  0.1935E+02  0.5686E+02
    -18.995  0.1942E+02  0.5712E+02
    -18.981  0.1950E+02  0.5739E+02
    -18.968  0.1959E+02  0.5766E+02
    -18.954  0.1969E+02  0.5793E+02
    -18.940  0.1980E+02  0.5820E+02
    -18.927  0.1992E+02  0.5847E+02
    -18.913  0.2003E+02  0.5875E+02
    -18.899  0.2015E+02  0.5902E+02
    -18.885  0.2027E+02  0.5930E+02
    -18.872  0.2038E+02  0.5958E+02
    -18.858  0.2048E+02  0.5986E+02
    -18.844  0.2058E+02  0.6014E+02
    -18.831  0.2066E+02  0.6043E+02
    -18.817  0.2072E+02  0.6071E+02
    -18.803  0.2077E+02  0.6100E+02
    -18.790  0.2080E+02  0.6128E+02
    -18.776  0.2080E+02  0.6157E+02
    -18.762  0.2078E+02  0.6185E+02
    -18.748  0.2074E+02  0.6214E+02
    -18.735  0.2067E+02  0.6242E+02
    -18.721  0.2058E+02  0.6270E+02
    -18.707  0.2047E+02  0.6298E+02
    -18.694  0.2034E+02  0.6326E+02
    -18.680  0.2018E+02  0.6354E+02
    -18.666  0.2002E+02  0.6381E+02
    -18.652  0.1984E+02  0.6408E+02
    -18.639  0.1965E+02  0.6435E+02
    -18.625  0.1945E+02  0.6462E+02
    -18.611  0.1925E+02  0.6488E+02
    -18.598  0.1905E+02  0.6514E+02
    -18.584  0.1886E+02  0.6540E+02
    -18.570  0.1868E+02  0.6566E+02
    -18.557  0.1851E+02  0.6591E+02
    -18.543  0.1836E+02  0.6616E+02
    -18.529  0.1822E+02  0.6641E+02
    -18.515  0.1811E+02  0.6666E+02
    -18.502  0.1802E+02  0.6691E+02
    -18.488  0.1795E+02  0.6715E+02
    -18.474  0.1791E+02  0.6740E+02
    -18.461  0.1789E+02  0.6764E+02
    -18.447  0.1789E+02  0.6789E+02
    -18.433  0.1791E+02  0.6814E+02
    -18.419  0.1796E+02  0.6838E+02
    -18.406  0.1801E+02  0.6863E+02
    -18.392  0.1809E+02  0.6888E+02
    -18.378  0.1817E+02  0.6913E+02
    -18.365  0.1826E+02  0.6938E+02
    -18.351  0.1835E+02  0.6963E+02
    -18.337  0.1845E+02  0.6988E+02
    -18.324  0.1854E+02  0.7013E+02
    -18.310  0.1862E+02  0.7039E+02
    -18.296  0.1870E+02  0.7065E+02
    -18.282  0.1877E+02  0.7090E+02
    -18.269  0.1883E+02  0.7116E+02
    -18.255  0.1887E+02  0.7142E+02
    -18.241  0.1890E+02  0.7168E+02
    -18.228  0.1891E+02  0.7194E+02
    -18.214  0.1890E+02  0.7220E+02
    -18.200  0.1888E+02  0.7246E+02
    -18.187  0.1885E+02  0.7271E+02
    -18.173  0.1880E+02  0.7297E+02
    -18.159  0.1874E+02  0.7323E+02
    -18.145  0.1866E+02  0.7348E+02
    -18.132  0.1858E+02  0.7374E+02
    -18.118  0.1848E+02  0.7399E+02
    -18.104  0.1838E+02  0.7424E+02
    -18.091  0.1827E+02  0.7449E+02
    -18.077  0.1817E+02  0.7474E+02
    -18.063  0.1806E+02  0.7499E+02
    -18.049  0.1796E+02  0.7524E+02
    -18.036  0.1787E+02  0.7548E+02
    -18.022  0.1779E+02  0.7573E+02
    -18.008  0.1773E+02  0.7597E+02
    -17.995  0.1769E+02  0.7621E+02
    -17.981  0.1766E+02  0.7645E+02
    -17.967  0.1766E+02  0.7670E+02
    -17.954  0.1768E+02  0.7694E+02
    -17.940  0.1772E+02  0.7718E+02
    -17.926  0.1779E+02  0.7742E+02
    -17.912  0.1788E+02  0.7767E+02
    -17.899  0.1798E+02  0.7792E+02
    -17.885  0.1810E+02  0.7816E+02
    -17.871  0.1823E+02  0.7841E+02
    -17.858  0.1837E+02  0.7867E+02
    -17.844  0.1851E+02  0.7892E+02
    -17.830  0.1864E+02  0.7917E+02
    -17.816  0.1877E+02  0.7943E+02
    -17.803  0.1889E+02  0.7969E+02
    -17.789  0.1899E+02  0.7995E+02
    -17.775  0.1907E+02  0.8021E+02
    -17.762  0.1913E+02  0.8047E+02
    -17.748  0.1917E+02  0.8074E+02
    -17.734  0.1919E+02  0.8100E+02
    -17.721  0.1918E+02  0.8126E+02
    -17.707  0.1916E+02  0.8153E+02
    -17.693  0.1912E+02  0.8179E+02
    -17.679  0.1906E+02  0.8205E+02
    -17.666  0.1899E+02  0.8231E+02
    -17.652  0.1891E+02  0.8257E+02
    -17.638  0.1883E+02  0.8283E+02
    -17.625  0.1874E+02  0.8308E+02
    -17.611  0.1866E+02  0.8334E+02
    -17.597  0.1858E+02  0.8359E+02
    -17.583  0.1850E+02  0.8385E+02
    -17.570  0.1843E+02  0.8410E+02
    -17.556  0.1837E+02  0.8435E+02
    -17.542  0.1831E+02  0.8460E+02
    -17.529  0.1826E+02  0.8485E+02
    -17.515  0.1821E+02  0.8510E+02
    -17.501  0.1817E+02  0.8535E+02
    -17.488  0.1813E+02  0.8560E+02
    -17.474  0.1808E+02  0.8585E+02
    -17.460  0.1803E+02  0.8609E+02
    -17.446  0.1797E+02  0.8634E+02
    -17.433  0.1791E+02  0.8659E+02
    -17.419  0.1784E+02  0.8683E+02
    -17.405  0.1775E+02  0.8707E+02
    -17.392  0.1766E+02  0.8732E+02
    -17.378  0.1756E+02  0.8756E+02
    -17.364  0.1745E+02  0.8780E+02
    -17.350  0.1734E+02  0.8803E+02
    -17.337  0.1722E+02  0.8827E+02
    -17.323  0.1709E+02  0.8850E+02
    -17.309  0.1697E+02  0.8874E+02
    -17.296  0.1684E+02  0.8897E+02
    -17.282  0.1671E+02  0.8920E+02
    -17.268  0.1659E+02  0.8942E+02
    -17.255  0.1647E+02  0.8965E+02
    -17.241  0.1635E+02  0.8987E+02
    -17.227  0.1624E+02  0.9010E+02
    -17.213  0.1614E+02  0.9032E+02
    -17.200  0.1604E+02  0.9054E+02
    -17.186  0.1596E+02  0.9076E+02
    -17.172  0.1588E+02  0.9097E+02
    -17.159  0.1582E+02  0.9119E+02
    -17.145  0.1577E+02  0.9141E+02
    -17.131  0.1573E+02  0.9162E+02
    -17.117  0.1570E+02  0.9184E+02
    -17.104  0.1569E+02  0.9205E+02
    -17.090  0.1569E+02  0.9227E+02
    -17.076  0.1571E+02  0.9248E+02
    -17.063  0.1574E+02  0.9270E+02
    -17.049  0.1578E+02  0.9291E+02
    -17.035  0.1584E+02  0.9313E+02
    -17.022  0.1590E+02  0.9335E+02
    -17.008  0.1598E+02  0.9357E+02
    -16.994  0.1606E+02  0.9379E+02
    -16.980  0.1615E+02  0.9401E+02
    -16.967  0.1625E+02  0.9423E+02
    -16.953  0.1635E+02  0.9446E+02
    -16.939  0.1645E+02  0.9468E+02
    -16.926  0.1656E+02  0.9491E+02
    -16.912  0.1666E+02  0.9514E+02
    -16.898  0.1677E+02  0.9537E+02
    -16.884  0.1688E+02  0.9560E+02
    -16.871  0.1699E+02  0.9583E+02
    -16.857  0.1710E+02  0.9607E+02
    -16.843  0.1721E+02  0.9630E+02
    -16.830  0.1732E+02  0.9654E+02
    -16.816  0.1743E+02  0.9678E+02
    -16.802  0.1755E+02  0.9702E+02
    -16.789  0.1766E+02  0.9726E+02
    -16.775  0.1777E+02  0.9750E+02
    -16.761  0.1788E+02  0.9775E+02
    -16.747  0.1799E+02  0.9800E+02
    -16.734  0.1810E+02  0.9824E+02
    -16.720  0.1821E+02  0.9849E+02
    -16.706  0.1832E+02  0.9874E+02
    -16.693  0.1843E+02  0.9900E+02
    -16.679  0.1853E+02  0.9925E+02
    -16.665  0.1864E+02  0.9951E+02
    -16.651  0.1875E+02  0.9976E+02
    -16.638  0.1886E+02  0.1000E+03
    -16.624  0.1897E+02  0.1003E+03
    -16.610  0.1908E+02  0.1005E+03
    -16.597  0.1919E+02  0.1008E+03
    -16.583  0.1930E+02  0.1011E+03
    -16.569  0.1941E+02  0.1013E+03
    -16.556  0.1951E+02  0.1016E+03
    -16.542  0.1961E+02  0.1019E+03
    -16.528  0.1970E+02  0.1021E+03
    -16.514  0.1979E+02  0.1024E+03
    -16.501  0.1986E+02  0.1027E+03
    -16.487  0.1991E+02  0.1030E+03
    -16.473  0.1995E+02  0.1032E+03
    -16.460  0.1997E+02  0.1035E+03
    -16.446  0.1997E+02  0.1038E+03
    -16.432  0.1995E+02  0.1041E+03
    -16.418  0.1991E+02  0.1043E+03
    -16.405  0.1984E+02  0.1046E+03
    -16.391  0.1975E+02  0.1049E+03
    -16.377  0.1964E+02  0.1051E+03
    -16.364  0.1952E+02  0.1054E+03
    -16.350  0.1937E+02  0.1057E+03
    -16.336  0.1922E+02  0.1059E+03
    -16.323  0.1906E+02  0.1062E+03
    -16.309  0.1889E+02  0.1065E+03
    -16.295  0.1873E+02  0.1067E+03
    -16.281  0.1856E+02  0.1070E+03
    -16.268  0.1840E+02  0.1072E+03
    -16.254  0.1825E+02  0.1075E+03
    -16.240  0.1811E+02  0.1077E+03
    -16.227  0.1798E+02  0.1080E+03
    -16.213  0.1787E+02  0.1082E+03
    -16.199  0.1776E+02  0.1085E+03
    -16.185  0.1768E+02  0.1087E+03
    -16.172  0.1761E+02  0.1089E+03
    -16.158  0.1755E+02  0.1092E+03
    -16.144  0.1751E+02  0.1094E+03
    -16.131  0.1749E+02  0.1097E+03
    -16.117  0.1748E+02  0.1099E+03
    -16.103  0.1748E+02  0.1101E+03
    -16.090  0.1751E+02  0.1104E+03
    -16.076  0.1755E+02  0.1106E+03
    -16.062  0.1761E+02  0.1109E+03
    -16.048  0.1769E+02  0.1111E+03
    -16.035  0.1780E+02  0.1113E+03
    -16.021  0.1793E+02  0.1116E+03
    -16.007  0.1808E+02  0.1118E+03
    -15.994  0.1826E+02  0.1121E+03
    -15.980  0.1847E+02  0.1123E+03
    -15.966  0.1869E+02  0.1126E+03
    -15.952  0.1894E+02  0.1129E+03
    -15.939  0.1921E+02  0.1131E+03
    -15.925  0.1950E+02  0.1134E+03
    -15.911  0.1980E+02  0.1137E+03
    -15.898  0.2010E+02  0.1139E+03
    -15.884  0.2040E+02  0.1142E+03
    -15.870  0.2069E+02  0.1145E+03
    -15.857  0.2097E+02  0.1148E+03
    -15.843  0.2123E+02  0.1151E+03
    -15.829  0.2146E+02  0.1154E+03
    -15.815  0.2165E+02  0.1157E+03
    -15.802  0.2181E+02  0.1160E+03
    -15.788  0.2192E+02  0.1163E+03
    -15.774  0.2198E+02  0.1166E+03
    -15.761  0.2200E+02  0.1169E+03
    -15.747  0.2197E+02  0.1172E+03
    -15.733  0.2189E+02  0.1175E+03
    -15.720  0.2176E+02  0.1178E+03
    -15.706  0.2159E+02  0.1181E+03
    -15.692  0.2139E+02  0.1184E+03
    -15.678  0.2116E+02  0.1186E+03
    -15.665  0.2091E+02  0.1189E+03
    -15.651  0.2063E+02  0.1192E+03
    -15.637  0.2035E+02  0.1195E+03
    -15.624  0.2007E+02  0.1198E+03
    -15.610  0.1980E+02  0.1200E+03
    -15.596  0.1953E+02  0.1203E+03
    -15.582  0.1928E+02  0.1206E+03
    -15.569  0.1905E+02  0.1208E+03
    -15.555  0.1885E+02  0.1211E+03
    -15.541  0.1868E+02  0.1213E+03
    -15.528  0.1853E+02  0.1216E+03
    -15.514  0.1842E+02  0.1219E+03
    -15.500  0.1833E+02  0.1221E+03
    -15.487  0.1827E+02  0.1224E+03
    -15.473  0.1824E+02  0.1226E+03
    -15.459  0.1824E+02  0.1229E+03
    -15.445  0.1826E+02  0.1231E+03
    -15.432  0.1829E+02  0.1234E+03
    -15.418  0.1834E+02  0.1236E+03
    -15.404  0.1840E+02  0.1239E+03
    -15.391  0.1847E+02  0.1241E+03
    -15.377  0.1854E+02  0.1244E+03
    -15.363  0.1861E+02  0.1246E+03
    -15.349  0.1867E+02  0.1249E+03
    -15.336  0.1873E+02  0.1251E+03
    -15.322  0.1879E+02  0.1254E+03
    -15.308  0.1883E+02  0.1257E+03
    -15.295  0.1885E+02  0.1259E+03
    -15.281  0.1886E+02  0.1262E+03
    -15.267  0.1885E+02  0.1264E+03
    -15.254  0.1883E+02  0.1267E+03
    -15.240  0.1879E+02  0.1269E+03
    -15.226  0.1872E+02  0.1272E+03
    -15.212  0.1865E+02  0.1275E+03
    -15.199  0.1855E+02  0.1277E+03
    -15.185  0.1844E+02  0.1280E+03
    -15.171  0.1832E+02  0.1282E+03
    -15.158  0.1819E+02  0.1285E+03
    -15.144  0.1805E+02  0.1287E+03
    -15.130  0.1790E+02  0.1290E+03
    -15.116  0.1776E+02  0.1292E+03
    -15.103  0.1762E+02  0.1294E+03
    -15.089  0.1748E+02  0.1297E+03
    -15.075  0.1736E+02  0.1299E+03
    -15.062  0.1725E+02  0.1302E+03
    -15.048  0.1715E+02  0.1304E+03
    -15.034  0.1707E+02  0.1306E+03
    -15.021  0.1701E+02  0.1309E+03
    -15.007  0.1696E+02  0.1311E+03
    -14.993  0.1693E+02  0.1313E+03
    -14.979  0.1692E+02  0.1316E+03
    -14.966  0.1693E+02  0.1318E+03
    -14.952  0.1695E+02  0.1320E+03
    -14.938  0.1697E+02  0.1322E+03
    -14.925  0.1700E+02  0.1325E+03
    -14.911  0.1704E+02  0.1327E+03
    -14.897  0.1707E+02  0.1329E+03
    -14.883  0.1710E+02  0.1332E+03
    -14.870  0.1712E+02  0.1334E+03
    -14.856  0.1713E+02  0.1337E+03
    -14.842  0.1713E+02  0.1339E+03
    -14.829  0.1711E+02  0.1341E+03
    -14.815  0.1708E+02  0.1344E+03
    -14.801  0.1703E+02  0.1346E+03
    -14.788  0.1697E+02  0.1348E+03
    -14.774  0.1690E+02  0.1351E+03
    -14.760  0.1681E+02  0.1353E+03
    -14.746  0.1672E+02  0.1355E+03
    -14.733  0.1662E+02  0.1357E+03
    -14.719  0.1652E+02  0.1360E+03
    -14.705  0.1642E+02  0.1362E+03
    -14.692  0.1632E+02  0.1364E+03
    -14.678  0.1623E+02  0.1366E+03
    -14.664  0.1615E+02  0.1369E+03
    -14.650  0.1608E+02  0.1371E+03
    -14.637  0.1602E+02  0.1373E+03
    -14.623  0.1598E+02  0.1375E+03
    -14.609  0.1596E+02  0.1377E+03
    -14.596  0.1595E+02  0.1380E+03
    -14.582  0.1596E+02  0.1382E+03
    -14.568  0.1599E+02  0.1384E+03
    -14.555  0.1603E+02  0.1386E+03
    -14.541  0.1609E+02  0.1388E+03
    -14.527  0.1617E+02  0.1391E+03
    -14.513  0.1627E+02  0.1393E+03
    -14.500  0.1638E+02  0.1395E+03
    -14.486  0.1651E+02  0.1397E+03
    -14.472  0.1666E+02  0.1400E+03
    -14.459  0.1682E+02  0.1402E+03
    -14.445  0.1700E+02  0.1404E+03
    -14.431  0.1720E+02  0.1407E+03
    -14.417  0.1742E+02  0.1409E+03
    -14.404  0.1765E+02  0.1411E+03
    -14.390  0.1791E+02  0.1414E+03
    -14.376  0.1818E+02  0.1416E+03
    -14.363  0.1848E+02  0.1419E+03
    -14.349  0.1879E+02  0.1421E+03
    -14.335  0.1911E+02  0.1424E+03
    -14.322  0.1945E+02  0.1427E+03
    -14.308  0.1980E+02  0.1429E+03
    -14.294  0.2016E+02  0.1432E+03
    -14.280  0.2052E+02  0.1435E+03
    -14.267  0.2088E+02  0.1438E+03
    -14.253  0.2123E+02  0.1441E+03
    -14.239  0.2157E+02  0.1444E+03
    -14.226  0.2190E+02  0.1447E+03
    -14.212  0.2222E+02  0.1450E+03
    -14.198  0.2251E+02  0.1453E+03
    -14.184  0.2277E+02  0.1456E+03
    -14.171  0.2301E+02  0.1459E+03
    -14.157  0.2321E+02  0.1462E+03
    -14.143  0.2338E+02  0.1466E+03
    -14.130  0.2352E+02  0.1469E+03
    -14.116  0.2362E+02  0.1472E+03
    -14.102  0.2368E+02  0.1475E+03
    -14.089  0.2371E+02  0.1478E+03
    -14.075  0.2370E+02  0.1482E+03
    -14.061  0.2365E+02  0.1485E+03
    -14.047  0.2357E+02  0.1488E+03
    -14.034  0.2345E+02  0.1491E+03
    -14.020  0.2330E+02  0.1495E+03
    -14.006  0.2313E+02  0.1498E+03
    -13.993  0.2292E+02  0.1501E+03
    -13.979  0.2269E+02  0.1504E+03
    -13.965  0.2245E+02  0.1507E+03
    -13.951  0.2218E+02  0.1510E+03
    -13.938  0.2190E+02  0.1513E+03
    -13.924  0.2162E+02  0.1516E+03
    -13.910  0.2133E+02  0.1519E+03
    -13.897  0.2104E+02  0.1522E+03
    -13.883  0.2076E+02  0.1525E+03
    -13.869  0.2049E+02  0.1528E+03
    -13.856  0.2023E+02  0.1530E+03
    -13.842  0.2000E+02  0.1533E+03
    -13.828  0.1978E+02  0.1536E+03
    -13.814  0.1959E+02  0.1538E+03
    -13.801  0.1943E+02  0.1541E+03
    -13.787  0.1929E+02  0.1544E+03
    -13.773  0.1918E+02  0.1546E+03
    -13.760  0.1910E+02  0.1549E+03
    -13.746  0.1904E+02  0.1552E+03
    -13.732  0.1901E+02  0.1554E+03
    -13.718  0.1900E+02  0.1557E+03
    -13.705  0.1900E+02  0.1559E+03
    -13.691  0.1903E+02  0.1562E+03
    -13.677  0.1906E+02  0.1565E+03
    -13.664  0.1911E+02  0.1567E+03
    -13.650  0.1916E+02  0.1570E+03
    -13.636  0.1921E+02  0.1573E+03
    -13.623  0.1926E+02  0.1575E+03
    -13.609  0.1932E+02  0.1578E+03
    -13.595  0.1937E+02  0.1580E+03
    -13.581  0.1941E+02  0.1583E+03
    -13.568  0.1945E+02  0.1586E+03
    -13.554  0.1949E+02  0.1588E+03
    -13.540  0.1952E+02  0.1591E+03
    -13.527  0.1955E+02  0.1594E+03
    -13.513  0.1957E+02  0.1597E+03
    -13.499  0.1959E+02  0.1599E+03
    -13.485  0.1961E+02  0.1602E+03
    -13.472  0.1963E+02  0.1605E+03
    -13.458  0.1964E+02  0.1607E+03
    -13.444  0.1965E+02  0.1610E+03
    -13.431  0.1966E+02  0.1613E+03
    -13.417  0.1967E+02  0.1615E+03
    -13.403  0.1967E+02  0.1618E+03
    -13.390  0.1968E+02  0.1621E+03
    -13.376  0.1967E+02  0.1623E+03
    -13.362  0.1966E+02  0.1626E+03
    -13.348  0.1964E+02  0.1629E+03
    -13.335  0.1962E+02  0.1632E+03
    -13.321  0.1958E+02  0.1634E+03
    -13.307  0.1954E+02  0.1637E+03
    -13.294  0.1948E+02  0.1640E+03
    -13.280  0.1942E+02  0.1642E+03
    -13.266  0.1935E+02  0.1645E+03
    -13.252  0.1927E+02  0.1648E+03
    -13.239  0.1919E+02  0.1650E+03
    -13.225  0.1910E+02  0.1653E+03
    -13.211  0.1902E+02  0.1655E+03
    -13.198  0.1894E+02  0.1658E+03
    -13.184  0.1887E+02  0.1661E+03
    -13.170  0.1881E+02  0.1663E+03
    -13.157  0.1877E+02  0.1666E+03
    -13.143  0.1874E+02  0.1668E+03
    -13.129  0.1874E+02  0.1671E+03
    -13.115  0.1876E+02  0.1673E+03
    -13.102  0.1881E+02  0.1676E+03
    -13.088  0.1888E+02  0.1679E+03
    -13.074  0.1898E+02  0.1681E+03
    -13.061  0.1911E+02  0.1684E+03
    -13.047  0.1926E+02  0.1686E+03
    -13.033  0.1943E+02  0.1689E+03
    -13.020  0.1961E+02  0.1692E+03
    -13.006  0.1982E+02  0.1695E+03
    -12.992  0.2003E+02  0.1697E+03
    -12.978  0.2025E+02  0.1700E+03
    -12.965  0.2048E+02  0.1703E+03
    -12.951  0.2070E+02  0.1706E+03
    -12.937  0.2092E+02  0.1709E+03
    -12.924  0.2113E+02  0.1711E+03
    -12.910  0.2133E+02  0.1714E+03
    -12.896  0.2151E+02  0.1717E+03