 140 140   0   0
  0.2619380E+02  0.2130000E-08  0.1721659E-08  0.1000000E-08  0.5000000E-15
  1.000000000000000E-004
  CAR 
 unknown system                          
      6.10422181    -25.13823057 2000     -0.92867369      1.00000000
    -25.138  0.0000E+00  0.0000E+00
    -25.123  0.0000E+00  0.0000E+00
    -25.107  0.0000E+00  0.0000E+00
    -25.091  0.0000E+00  0.0000E+00
    -25.076  0.0000E+00  0.0000E+00
    -25.060  0.0000E+00  0.0000E+00
    -25.044  0.0000E+00  0.0000E+00
    -25.029  0.0000E+00  0.0000E+00
    -25.013  0.0000E+00  0.0000E+00
    -24.998  0.0000E+00  0.0000E+00
    -24.982  0.0000E+00  0.0000E+00
    -24.966  0.0000E+00  0.0000E+00
    -24.951  0.0000E+00  0.0000E+00
    -24.935  0.0000E+00  0.0000E+00
    -24.919  0.0000E+00  0.0000E+00
    -24.904  0.0000E+00  0.0000E+00
    -24.888  0.0000E+00  0.0000E+00
    -24.873  0.0000E+00  0.0000E+00
    -24.857  0.0000E+00  0.0000E+00
    -24.841  0.0000E+00  0.0000E+00
    -24.826  0.0000E+00  0.0000E+00
    -24.810  0.0000E+00  0.0000E+00
    -24.794  0.0000E+00  0.0000E+00
    -24.779  0.0000E+00  0.0000E+00
    -24.763  0.0000E+00  0.0000E+00
    -24.748  0.0000E+00  0.0000E+00
    -24.732  0.0000E+00  0.0000E+00
    -24.716  0.0000E+00  0.0000E+00
    -24.701  0.0000E+00  0.0000E+00
    -24.685  0.0000E+00  0.0000E+00
    -24.669  0.0000E+00  0.0000E+00
    -24.654  0.0000E+00  0.0000E+00
    -24.638  0.0000E+00  0.0000E+00
    -24.622  0.0000E+00  0.0000E+00
    -24.607  0.0000E+00  0.0000E+00
    -24.591  0.0000E+00  0.0000E+00
    -24.576  0.0000E+00  0.0000E+00
    -24.560  0.0000E+00  0.0000E+00
    -24.544  0.0000E+00  0.0000E+00
    -24.529  0.0000E+00  0.0000E+00
    -24.513  0.0000E+00  0.0000E+00
    -24.497  0.0000E+00  0.0000E+00
    -24.482  0.0000E+00  0.0000E+00
    -24.466  0.0000E+00  0.0000E+00
    -24.451  0.0000E+00  0.0000E+00
    -24.435  0.0000E+00  0.0000E+00
    -24.419  0.0000E+00  0.0000E+00
    -24.404  0.0000E+00  0.0000E+00
    -24.388  0.0000E+00  0.0000E+00
    -24.372  0.0000E+00  0.0000E+00
    -24.357  0.0000E+00  0.0000E+00
    -24.341  0.0000E+00  0.0000E+00
    -24.326  0.0000E+00  0.0000E+00
    -24.310  0.7104E-14  0.1110E-15
    -24.294  0.1421E-13  0.3331E-15
    -24.279  0.2841E-13  0.7772E-15
    -24.263  0.6393E-13  0.1776E-14
    -24.247  0.1705E-12  0.4441E-14
    -24.232  0.3907E-12  0.1055E-13
    -24.216  0.9235E-12  0.2498E-13
    -24.200  0.2145E-11  0.5851E-13
    -24.185  0.4916E-11  0.1353E-12
    -24.169  0.1113E-10  0.3092E-12
    -24.154  0.2488E-10  0.6981E-12
    -24.138  0.5497E-10  0.1557E-11
    -24.122  0.1200E-09  0.3432E-11
    -24.107  0.2587E-09  0.7475E-11
    -24.091  0.5509E-09  0.1609E-10
    -24.075  0.1159E-08  0.3420E-10
    -24.060  0.2409E-08  0.7186E-10
    -24.044  0.4947E-08  0.1492E-09
    -24.029  0.1004E-07  0.3060E-09
    -24.013  0.2011E-07  0.6203E-09
    -23.997  0.3981E-07  0.1242E-08
    -23.982  0.7784E-07  0.2459E-08
    -23.966  0.1504E-06  0.4809E-08
    -23.950  0.2870E-06  0.9294E-08
    -23.935  0.5410E-06  0.1775E-07
    -23.919  0.1008E-05  0.3350E-07
    -23.904  0.1854E-05  0.6247E-07
    -23.888  0.3369E-05  0.1151E-06
    -23.872  0.6049E-05  0.2097E-06
    -23.857  0.1073E-04  0.3774E-06
    -23.841  0.1880E-04  0.6712E-06
    -23.825  0.3254E-04  0.1180E-05
    -23.810  0.5564E-04  0.2049E-05
    -23.794  0.9399E-04  0.3518E-05
    -23.779  0.1568E-03  0.5969E-05
    -23.763  0.2585E-03  0.1001E-04
    -23.747  0.4210E-03  0.1659E-04
    -23.732  0.6773E-03  0.2718E-04
    -23.716  0.1076E-02  0.4400E-04
    -23.700  0.1690E-02  0.7041E-04
    -23.685  0.2621E-02  0.1114E-03
    -23.669  0.4015E-02  0.1741E-03
    -23.653  0.6077E-02  0.2691E-03
    -23.638  0.9086E-02  0.4111E-03
    -23.622  0.1342E-01  0.6209E-03
    -23.607  0.1958E-01  0.9269E-03
    -23.591  0.2823E-01  0.1368E-02
    -23.575  0.4019E-01  0.1996E-02
    -23.560  0.5654E-01  0.2880E-02
    -23.544  0.7857E-01  0.4108E-02
    -23.528  0.1079E+00  0.5793E-02
    -23.513  0.1463E+00  0.8079E-02
    -23.497  0.1959E+00  0.1114E-01
    -23.482  0.2593E+00  0.1519E-01
    -23.466  0.3390E+00  0.2049E-01
    -23.450  0.4379E+00  0.2734E-01
    -23.435  0.5586E+00  0.3607E-01
    -23.419  0.7041E+00  0.4707E-01
    -23.403  0.8767E+00  0.6077E-01
    -23.388  0.1078E+01  0.7763E-01
    -23.372  0.1310E+01  0.9811E-01
    -23.357  0.1573E+01  0.1227E+00
    -23.341  0.1865E+01  0.1518E+00
    -23.325  0.2185E+01  0.1860E+00
    -23.310  0.2528E+01  0.2255E+00
    -23.294  0.2890E+01  0.2707E+00
    -23.278  0.3264E+01  0.3217E+00
    -23.263  0.3641E+01  0.3786E+00
    -23.247  0.4013E+01  0.4413E+00
    -23.231  0.4369E+01  0.5096E+00
    -23.216  0.4699E+01  0.5830E+00
    -23.200  0.4993E+01  0.6611E+00
    -23.185  0.5240E+01  0.7430E+00
    -23.169  0.5433E+01  0.8279E+00
    -23.153  0.5565E+01  0.9149E+00
    -23.138  0.5632E+01  0.1003E+01
    -23.122  0.5629E+01  0.1091E+01
    -23.106  0.5559E+01  0.1178E+01
    -23.091  0.5423E+01  0.1262E+01
    -23.075  0.5226E+01  0.1344E+01
    -23.060  0.4975E+01  0.1422E+01
    -23.044  0.4679E+01  0.1495E+01
    -23.028  0.4347E+01  0.1563E+01
    -23.013  0.3989E+01  0.1625E+01
    -22.997  0.3617E+01  0.1682E+01
    -22.981  0.3239E+01  0.1732E+01
    -22.966  0.2866E+01  0.1777E+01
    -22.950  0.2505E+01  0.1816E+01
    -22.935  0.2163E+01  0.1850E+01
    -22.919  0.1845E+01  0.1879E+01
    -22.903  0.1555E+01  0.1903E+01
    -22.888  0.1294E+01  0.1924E+01
    -22.872  0.1064E+01  0.1940E+01
    -22.856  0.8646E+00  0.1954E+01
    -22.841  0.6938E+00  0.1965E+01
    -22.825  0.5500E+00  0.1973E+01
    -22.810  0.4308E+00  0.1980E+01
    -22.794  0.3333E+00  0.1985E+01
    -22.778  0.2547E+00  0.1989E+01
    -22.763  0.1923E+00  0.1992E+01
    -22.747  0.1434E+00  0.1994E+01
    -22.731  0.1057E+00  0.1996E+01
    -22.716  0.7693E-01  0.1997E+01
    -22.700  0.5532E-01  0.1998E+01
    -22.684  0.3929E-01  0.1999E+01
    -22.669  0.2757E-01  0.1999E+01
    -22.653  0.1911E-01  0.1999E+01
    -22.638  0.1309E-01  0.2000E+01
    -22.622  0.8854E-02  0.2000E+01
    -22.606  0.5917E-02  0.2000E+01
    -22.591  0.3907E-02  0.2000E+01
    -22.575  0.2548E-02  0.2000E+01
    -22.559  0.1641E-02  0.2000E+01
    -22.544  0.1045E-02  0.2000E+01
    -22.528  0.6569E-03  0.2000E+01
    -22.513  0.4080E-03  0.2000E+01
    -22.497  0.2503E-03  0.2000E+01
    -22.481  0.1517E-03  0.2000E+01
    -22.466  0.9086E-04  0.2000E+01
    -22.450  0.5375E-04  0.2000E+01
    -22.434  0.3141E-04  0.2000E+01
    -22.419  0.1813E-04  0.2000E+01
    -22.403  0.1034E-04  0.2000E+01
    -22.388  0.5825E-05  0.2000E+01
    -22.372  0.3242E-05  0.2000E+01
    -22.356  0.1782E-05  0.2000E+01
    -22.341  0.9679E-06  0.2000E+01
    -22.325  0.5193E-06  0.2000E+01
    -22.309  0.2752E-06  0.2000E+01
    -22.294  0.1441E-06  0.2000E+01
    -22.278  0.7454E-07  0.2000E+01
    -22.262  0.3809E-07  0.2000E+01
    -22.247  0.1923E-07  0.2000E+01
    -22.231  0.9587E-08  0.2000E+01
    -22.216  0.4722E-08  0.2000E+01
    -22.200  0.2298E-08  0.2000E+01
    -22.184  0.1105E-08  0.2000E+01
    -22.169  0.5246E-09  0.2000E+01
    -22.153  0.2461E-09  0.2000E+01
    -22.137  0.1141E-09  0.2000E+01
    -22.122  0.5222E-10  0.2000E+01
    -22.106  0.2362E-10  0.2000E+01
    -22.091  0.1056E-10  0.2000E+01
    -22.075  0.4675E-11  0.2000E+01
    -22.059  0.2093E-11  0.2000E+01
    -22.044  0.9906E-12  0.2000E+01
    -22.028  0.6717E-12  0.2000E+01
    -22.012  0.8232E-12  0.2000E+01
    -21.997  0.1656E-11  0.2000E+01
    -21.981  0.3667E-11  0.2000E+01
    -21.966  0.8348E-11  0.2000E+01
    -21.950  0.1870E-10  0.2000E+01
    -21.934  0.4156E-10  0.2000E+01
    -21.919  0.9122E-10  0.2000E+01
    -21.903  0.1978E-09  0.2000E+01
    -21.887  0.4240E-09  0.2000E+01
    -21.872  0.8977E-09  0.2000E+01
    -21.856  0.1878E-08  0.2000E+01
    -21.841  0.3881E-08  0.2000E+01
    -21.825  0.7927E-08  0.2000E+01
    -21.809  0.1600E-07  0.2000E+01
    -21.794  0.3189E-07  0.2000E+01
    -21.778  0.6282E-07  0.2000E+01
    -21.762  0.1223E-06  0.2000E+01
    -21.747  0.2352E-06  0.2000E+01
    -21.731  0.4470E-06  0.2000E+01
    -21.715  0.8393E-06  0.2000E+01
    -21.700  0.1557E-05  0.2000E+01
    -21.684  0.2855E-05  0.2000E+01
    -21.669  0.5172E-05  0.2000E+01
    -21.653  0.9259E-05  0.2000E+01
    -21.637  0.1638E-04  0.2000E+01
    -21.622  0.2863E-04  0.2000E+01
    -21.606  0.4945E-04  0.2000E+01
    -21.590  0.8440E-04  0.2000E+01
    -21.575  0.1424E-03  0.2000E+01
    -21.559  0.2373E-03  0.2000E+01
    -21.544  0.3908E-03  0.2000E+01
    -21.528  0.6361E-03  0.2000E+01
    -21.512  0.1023E-02  0.2000E+01
    -21.497  0.1627E-02  0.2000E+01
    -21.481  0.2556E-02  0.2000E+01
    -21.465  0.3968E-02  0.2000E+01
    -21.450  0.6089E-02  0.2000E+01
    -21.434  0.9234E-02  0.2000E+01
    -21.419  0.1384E-01  0.2001E+01
    -21.403  0.2050E-01  0.2001E+01
    -21.387  0.3002E-01  0.2001E+01
    -21.372  0.4345E-01  0.2002E+01
    -21.356  0.6215E-01  0.2003E+01
    -21.340  0.8788E-01  0.2004E+01
    -21.325  0.1228E+00  0.2006E+01
    -21.309  0.1697E+00  0.2009E+01
    -21.293  0.2318E+00  0.2013E+01
    -21.278  0.3130E+00  0.2018E+01
    -21.262  0.4179E+00  0.2024E+01
    -21.247  0.5515E+00  0.2033E+01
    -21.231  0.7197E+00  0.2044E+01
    -21.215  0.9286E+00  0.2058E+01
    -21.200  0.1185E+01  0.2077E+01
    -21.184  0.1495E+01  0.2100E+01
    -21.168  0.1865E+01  0.2129E+01
    -21.153  0.2302E+01  0.2165E+01
    -21.137  0.2810E+01  0.2209E+01
    -21.122  0.3393E+01  0.2262E+01
    -21.106  0.4053E+01  0.2326E+01
    -21.090  0.4790E+01  0.2401E+01
    -21.075  0.5602E+01  0.2488E+01
    -21.059  0.6483E+01  0.2589E+01
    -21.043  0.7426E+01  0.2706E+01
    -21.028  0.8420E+01  0.2837E+01
    -21.012  0.9453E+01  0.2985E+01
    -20.997  0.1051E+02  0.3149E+01
    -20.981  0.1157E+02  0.3330E+01
    -20.965  0.1262E+02  0.3527E+01
    -20.950  0.1364E+02  0.3740E+01
    -20.934  0.1461E+02  0.3969E+01
    -20.918  0.1551E+02  0.4211E+01
    -20.903  0.1633E+02  0.4466E+01
    -20.887  0.1706E+02  0.4733E+01
    -20.872  0.1768E+02  0.5009E+01
    -20.856  0.1820E+02  0.5293E+01
    -20.840  0.1860E+02  0.5584E+01
    -20.825  0.1888E+02  0.5879E+01
    -20.809  0.1906E+02  0.6177E+01
    -20.793  0.1914E+02  0.6476E+01
    -20.778  0.1913E+02  0.6775E+01
    -20.762  0.1905E+02  0.7073E+01
    -20.746  0.1890E+02  0.7369E+01
    -20.731  0.1870E+02  0.7661E+01
    -20.715  0.1848E+02  0.7950E+01
    -20.700  0.1824E+02  0.8235E+01
    -20.684  0.1800E+02  0.8516E+01
    -20.668  0.1777E+02  0.8794E+01
    -20.653  0.1758E+02  0.9069E+01
    -20.637  0.1742E+02  0.9341E+01
    -20.621  0.1730E+02  0.9611E+01
    -20.606  0.1723E+02  0.9880E+01
    -20.590  0.1722E+02  0.1015E+02
    -20.575  0.1726E+02  0.1042E+02
    -20.559  0.1734E+02  0.1069E+02
    -20.543  0.1748E+02  0.1096E+02
    -20.528  0.1765E+02  0.1124E+02
    -20.512  0.1786E+02  0.1152E+02
    -20.496  0.1810E+02  0.1180E+02
    -20.481  0.1835E+02  0.1209E+02
    -20.465  0.1862E+02  0.1238E+02
    -20.450  0.1889E+02  0.1267E+02
    -20.434  0.1916E+02  0.1297E+02
    -20.418  0.1943E+02  0.1328E+02
    -20.403  0.1968E+02  0.1359E+02
    -20.387  0.1993E+02  0.1390E+02
    -20.371  0.2016E+02  0.1421E+02
    -20.356  0.2037E+02  0.1453E+02
    -20.340  0.2056E+02  0.1485E+02
    -20.324  0.2074E+02  0.1518E+02
    -20.309  0.2091E+02  0.1550E+02
    -20.293  0.2105E+02  0.1583E+02
    -20.278  0.2118E+02  0.1616E+02
    -20.262  0.2130E+02  0.1650E+02
    -20.246  0.2140E+02  0.1683E+02
    -20.231  0.2148E+02  0.1717E+02
    -20.215  0.2155E+02  0.1750E+02
    -20.199  0.2160E+02  0.1784E+02
    -20.184  0.2164E+02  0.1818E+02
    -20.168  0.2166E+02  0.1852E+02
    -20.153  0.2167E+02  0.1886E+02
    -20.137  0.2167E+02  0.1919E+02
    -20.121  0.2165E+02  0.1953E+02
    -20.106  0.2163E+02  0.1987E+02
    -20.090  0.2160E+02  0.2021E+02
    -20.074  0.2156E+02  0.2055E+02
    -20.059  0.2153E+02  0.2088E+02
    -20.043  0.2149E+02  0.2122E+02
    -20.028  0.2146E+02  0.2155E+02
    -20.012  0.2143E+02  0.2189E+02
    -19.996  0.2141E+02  0.2222E+02
    -19.981  0.2140E+02  0.2256E+02
    -19.965  0.2140E+02  0.2289E+02
    -19.949  0.2141E+02  0.2323E+02
    -19.934  0.2142E+02  0.2356E+02
    -19.918  0.2145E+02  0.2390E+02
    -19.903  0.2148E+02  0.2423E+02
    -19.887  0.2151E+02  0.2457E+02
    -19.871  0.2154E+02  0.2490E+02
    -19.856  0.2157E+02  0.2524E+02
    -19.840  0.2159E+02  0.2558E+02
    -19.824  0.2159E+02  0.2592E+02
    -19.809  0.2158E+02  0.2625E+02
    -19.793  0.2155E+02  0.2659E+02
    -19.777  0.2149E+02  0.2693E+02
    -19.762  0.2142E+02  0.2726E+02
    -19.746  0.2132E+02  0.2759E+02
    -19.731  0.2121E+02  0.2793E+02
    -19.715  0.2109E+02  0.2826E+02
    -19.699  0.2096E+02  0.2858E+02
    -19.684  0.2084E+02  0.2891E+02
    -19.668  0.2072E+02  0.2923E+02
    -19.652  0.2062E+02  0.2955E+02
    -19.637  0.2054E+02  0.2988E+02
    -19.621  0.2049E+02  0.3020E+02
    -19.606  0.2048E+02  0.3052E+02
    -19.590  0.2051E+02  0.3084E+02
    -19.574  0.2057E+02  0.3116E+02
    -19.559  0.2068E+02  0.3148E+02
    -19.543  0.2081E+02  0.3181E+02
    -19.527  0.2098E+02  0.3213E+02
    -19.512  0.2117E+02  0.3247E+02
    -19.496  0.2137E+02  0.3280E+02
    -19.481  0.2158E+02  0.3314E+02
    -19.465  0.2178E+02  0.3348E+02
    -19.449  0.2198E+02  0.3382E+02
    -19.434  0.2215E+02  0.3417E+02
    -19.418  0.2230E+02  0.3452E+02
    -19.402  0.2241E+02  0.3487E+02
    -19.387  0.2249E+02  0.3522E+02
    -19.371  0.2254E+02  0.3557E+02
    -19.355  0.2256E+02  0.3592E+02
    -19.340  0.2255E+02  0.3627E+02
    -19.324  0.2250E+02  0.3663E+02
    -19.309  0.2244E+02  0.3698E+02
    -19.293  0.2236E+02  0.3733E+02
    -19.277  0.2227E+02  0.3767E+02
    -19.262  0.2218E+02  0.3802E+02
    -19.246  0.2208E+02  0.3837E+02
    -19.230  0.2198E+02  0.3871E+02
    -19.215  0.2189E+02  0.3905E+02
    -19.199  0.2180E+02  0.3939E+02
    -19.184  0.2171E+02  0.3973E+02
    -19.168  0.2164E+02  0.4007E+02
    -19.152  0.2157E+02  0.4041E+02
    -19.137  0.2150E+02  0.4074E+02
    -19.121  0.2144E+02  0.4108E+02
    -19.105  0.2139E+02  0.4141E+02
    -19.090  0.2134E+02  0.4175E+02
    -19.074  0.2129E+02  0.4208E+02
    -19.059  0.2125E+02  0.4241E+02
    -19.043  0.2122E+02  0.4274E+02
    -19.027  0.2119E+02  0.4307E+02
    -19.012  0.2118E+02  0.4340E+02
    -18.996  0.2118E+02  0.4374E+02
    -18.980  0.2119E+02  0.4407E+02
    -18.965  0.2123E+02  0.4440E+02
    -18.949  0.2128E+02  0.4473E+02
    -18.934  0.2135E+02  0.4506E+02
    -18.918  0.2144E+02  0.4540E+02
    -18.902  0.2155E+02  0.4574E+02
    -18.887  0.2167E+02  0.4608E+02
    -18.871  0.2181E+02  0.4642E+02
    -18.855  0.2196E+02  0.4676E+02
    -18.840  0.2211E+02  0.4710E+02
    -18.824  0.2226E+02  0.4745E+02
    -18.808  0.2241E+02  0.4780E+02
    -18.793  0.2254E+02  0.4816E+02
    -18.777  0.2266E+02  0.4851E+02
    -18.762  0.2276E+02  0.4887E+02
    -18.746  0.2283E+02  0.4922E+02
    -18.730  0.2287E+02  0.4958E+02
    -18.715  0.2289E+02  0.4994E+02
    -18.699  0.2288E+02  0.5029E+02
    -18.683  0.2285E+02  0.5065E+02
    -18.668  0.2279E+02  0.5101E+02
    -18.652  0.2271E+02  0.5136E+02
    -18.637  0.2261E+02  0.5172E+02
    -18.621  0.2250E+02  0.5207E+02
    -18.605  0.2238E+02  0.5242E+02
    -18.590  0.2226E+02  0.5277E+02
    -18.574  0.2213E+02  0.5311E+02
    -18.558  0.2200E+02  0.5346E+02
    -18.543  0.2187E+02  0.5380E+02
    -18.527  0.2174E+02  0.5414E+02
    -18.512  0.2162E+02  0.5447E+02
    -18.496  0.2149E+02  0.5481E+02
    -18.480  0.2137E+02  0.5514E+02
    -18.465  0.2126E+02  0.5548E+02
    -18.449  0.2115E+02  0.5581E+02
    -18.433  0.2105E+02  0.5614E+02
    -18.418  0.2095E+02  0.5646E+02
    -18.402  0.2087E+02  0.5679E+02
    -18.386  0.2080E+02  0.5712E+02
    -18.371  0.2075E+02  0.5744E+02
    -18.355  0.2072E+02  0.5776E+02
    -18.340  0.2072E+02  0.5809E+02
    -18.324  0.2074E+02  0.5841E+02
    -18.308  0.2079E+02  0.5874E+02
    -18.293  0.2086E+02  0.5906E+02
    -18.277  0.2096E+02  0.5939E+02
    -18.261  0.2109E+02  0.5972E+02
    -18.246  0.2123E+02  0.6005E+02
    -18.230  0.2140E+02  0.6039E+02
    -18.215  0.2158E+02  0.6072E+02
    -18.199  0.2178E+02  0.6106E+02
    -18.183  0.2197E+02  0.6141E+02
    -18.168  0.2217E+02  0.6175E+02
    -18.152  0.2236E+02  0.6210E+02
    -18.136  0.2254E+02  0.6246E+02
    -18.121  0.2271E+02  0.6281E+02
    -18.105  0.2286E+02  0.6317E+02
    -18.090  0.2298E+02  0.6353E+02
    -18.074  0.2308E+02  0.6389E+02
    -18.058  0.2314E+02  0.6425E+02
    -18.043  0.2317E+02  0.6461E+02
    -18.027  0.2317E+02  0.6497E+02
    -18.011  0.2314E+02  0.6533E+02
    -17.996  0.2307E+02  0.6570E+02
    -17.980  0.2296E+02  0.6605E+02
    -17.965  0.2283E+02  0.6641E+02
    -17.949  0.2267E+02  0.6677E+02
    -17.933  0.2248E+02  0.6712E+02
    -17.918  0.2227E+02  0.6746E+02
    -17.902  0.2206E+02  0.6781E+02
    -17.886  0.2183E+02  0.6815E+02
    -17.871  0.2161E+02  0.6849E+02
    -17.855  0.2140E+02  0.6882E+02
    -17.839  0.2120E+02  0.6915E+02
    -17.824  0.2103E+02  0.6948E+02
    -17.808  0.2090E+02  0.6981E+02
    -17.793  0.2080E+02  0.7013E+02
    -17.777  0.2075E+02  0.7046E+02
    -17.761  0.2075E+02  0.7078E+02
    -17.746  0.2081E+02  0.7111E+02
    -17.730  0.2092E+02  0.7144E+02
    -17.714  0.2109E+02  0.7177E+02
    -17.699  0.2131E+02  0.7210E+02
    -17.683  0.2157E+02  0.7244E+02
    -17.668  0.2187E+02  0.7278E+02
    -17.652  0.2220E+02  0.7312E+02
    -17.636  0.2255E+02  0.7348E+02
    -17.621  0.2290E+02  0.7383E+02
    -17.605  0.2325E+02  0.7420E+02
    -17.589  0.2358E+02  0.7457E+02
    -17.574  0.2387E+02  0.7494E+02
    -17.558  0.2412E+02  0.7532E+02
    -17.543  0.2432E+02  0.7570E+02
    -17.527  0.2446E+02  0.7608E+02
    -17.511  0.2454E+02  0.7646E+02
    -17.496  0.2456E+02  0.7685E+02
    -17.480  0.2452E+02  0.7723E+02
    -17.464  0.2442E+02  0.7761E+02
    -17.449  0.2428E+02  0.7799E+02
    -17.433  0.2410E+02  0.7837E+02
    -17.417  0.2389E+02  0.7874E+02
    -17.402  0.2365E+02  0.7911E+02
    -17.386  0.2341E+02  0.7948E+02
    -17.371  0.2316E+02  0.7984E+02
    -17.355  0.2291E+02  0.8020E+02
    -17.339  0.2267E+02  0.8055E+02
    -17.324  0.2244E+02  0.8090E+02
    -17.308  0.2223E+02  0.8125E+02
    -17.292  0.2203E+02  0.8159E+02
    -17.277  0.2185E+02  0.8193E+02
    -17.261  0.2168E+02  0.8227E+02
    -17.246  0.2154E+02  0.8261E+02
    -17.230  0.2140E+02  0.8294E+02
    -17.214  0.2128E+02  0.8328E+02
    -17.199  0.2117E+02  0.8361E+02
    -17.183  0.2107E+02  0.8394E+02
    -17.167  0.2099E+02  0.8426E+02
    -17.152  0.2093E+02  0.8459E+02
    -17.136  0.2088E+02  0.8492E+02
    -17.121  0.2085E+02  0.8524E+02
    -17.105  0.2085E+02  0.8557E+02
    -17.089  0.2087E+02  0.8590E+02
    -17.074  0.2092E+02  0.8622E+02
    -17.058  0.2101E+02  0.8655E+02
    -17.042  0.2112E+02  0.8688E+02
    -17.027  0.2127E+02  0.8721E+02
    -17.011  0.2145E+02  0.8755E+02
    -16.996  0.2166E+02  0.8789E+02
    -16.980  0.2190E+02  0.8823E+02
    -16.964  0.2216E+02  0.8858E+02
    -16.949  0.2244E+02  0.8893E+02
    -16.933  0.2274E+02  0.8928E+02
    -16.917  0.2304E+02  0.8964E+02
    -16.902  0.2335E+02  0.9001E+02
    -16.886  0.2365E+02  0.9038E+02
    -16.870  0.2394E+02  0.9075E+02
    -16.855  0.2421E+02  0.9113E+02
    -16.839  0.2446E+02  0.9151E+02
    -16.824  0.2467E+02  0.9190E+02
    -16.808  0.2485E+02  0.9229E+02
    -16.792  0.2498E+02  0.9268E+02
    -16.777  0.2507E+02  0.9307E+02
    -16.761  0.2511E+02  0.9346E+02
    -16.745  0.2510E+02  0.9385E+02
    -16.730  0.2504E+02  0.9424E+02
    -16.714  0.2493E+02  0.9463E+02
    -16.699  0.2478E+02  0.9502E+02
    -16.683  0.2459E+02  0.9540E+02
    -16.667  0.2436E+02  0.9579E+02
    -16.652  0.2411E+02  0.9616E+02
    -16.636  0.2384E+02  0.9654E+02
    -16.620  0.2355E+02  0.9690E+02
    -16.605  0.2327E+02  0.9727E+02
    -16.589  0.2298E+02  0.9763E+02
    -16.574  0.2271E+02  0.9798E+02
    -16.558  0.2245E+02  0.9833E+02
    -16.542  0.2222E+02  0.9868E+02
    -16.527  0.2202E+02  0.9902E+02
    -16.511  0.2185E+02  0.9936E+02
    -16.495  0.2172E+02  0.9970E+02
    -16.480  0.2163E+02  0.1000E+03
    -16.464  0.2158E+02  0.1004E+03
    -16.448  0.2158E+02  0.1007E+03
    -16.433  0.2161E+02  0.1011E+03
    -16.417  0.2169E+02  0.1014E+03
    -16.402  0.2180E+02  0.1017E+03
    -16.386  0.2195E+02  0.1021E+03
    -16.370  0.2212E+02  0.1024E+03
    -16.355  0.2232E+02  0.1028E+03
    -16.339  0.2253E+02  0.1031E+03
    -16.323  0.2276E+02  0.1035E+03
    -16.308  0.2300E+02  0.1038E+03
    -16.292  0.2323E+02  0.1042E+03
    -16.277  0.2346E+02  0.1046E+03
    -16.261  0.2368E+02  0.1049E+03
    -16.245  0.2390E+02  0.1053E+03
    -16.230  0.2409E+02  0.1057E+03
    -16.214  0.2428E+02  0.1061E+03
    -16.198  0.2444E+02  0.1065E+03
    -16.183  0.2459E+02  0.1068E+03
    -16.167  0.2473E+02  0.1072E+03
    -16.152  0.2486E+02  0.1076E+03
    -16.136  0.2497E+02  0.1080E+03
    -16.120  0.2508E+02  0.1084E+03
    -16.105  0.2518E+02  0.1088E+03
    -16.089  0.2528E+02  0.1092E+03
    -16.073  0.2537E+02  0.1096E+03
    -16.058  0.2547E+02  0.1100E+03
    -16.042  0.2557E+02  0.1104E+03
    -16.026  0.2566E+02  0.1108E+03
    -16.011  0.2576E+02  0.1112E+03
    -15.995  0.2586E+02  0.1116E+03
    -15.980  0.2596E+02  0.1120E+03
    -15.964  0.2607E+02  0.1124E+03
    -15.948  0.2617E+02  0.1128E+03
    -15.933  0.2627E+02  0.1132E+03
    -15.917  0.2637E+02  0.1136E+03
    -15.901  0.2647E+02  0.1140E+03
    -15.886  0.2656E+02  0.1145E+03
    -15.870  0.2664E+02  0.1149E+03
    -15.855  0.2671E+02  0.1153E+03
    -15.839  0.2677E+02  0.1157E+03
    -15.823  0.2680E+02  0.1161E+03
    -15.808  0.2682E+02  0.1165E+03
    -15.792  0.2681E+02  0.1170E+03
    -15.776  0.2677E+02  0.1174E+03
    -15.761  0.2669E+02  0.1178E+03
    -15.745  0.2659E+02  0.1182E+03
    -15.730  0.2644E+02  0.1186E+03
    -15.714  0.2625E+02  0.1190E+03
    -15.698  0.2602E+02  0.1194E+03
    -15.683  0.2576E+02  0.1198E+03
    -15.667  0.2545E+02  0.1202E+03
    -15.651  0.2511E+02  0.1206E+03
    -15.636  0.2475E+02  0.1210E+03
    -15.620  0.2435E+02  0.1214E+03
    -15.605  0.2394E+02  0.1218E+03
    -15.589  0.2352E+02  0.1221E+03
    -15.573  0.2310E+02  0.1225E+03
    -15.558  0.2268E+02  0.1229E+03
    -15.542  0.2228E+02  0.1232E+03
    -15.526  0.2190E+02  0.1236E+03
    -15.511  0.2155E+02  0.1239E+03
    -15.495  0.2123E+02  0.1242E+03
    -15.479  0.2096E+02  0.1246E+03
    -15.464  0.2073E+02  0.1249E+03
    -15.448  0.2054E+02  0.1252E+03
    -15.433  0.2040E+02  0.1255E+03
    -15.417  0.2031E+02  0.1258E+03
    -15.401  0.2024E+02  0.1261E+03
    -15.386  0.2021E+02  0.1265E+03
    -15.370  0.2020E+02  0.1268E+03
    -15.354  0.2021E+02  0.1271E+03
    -15.339  0.2021E+02  0.1274E+03
    -15.323  0.2020E+02  0.1277E+03
    -15.308  0.2018E+02  0.1280E+03
    -15.292  0.2012E+02  0.1284E+03
    -15.276  0.2003E+02  0.1287E+03
    -15.261  0.1989E+02  0.1290E+03
    -15.245  0.1970E+02  0.1293E+03
    -15.229  0.1946E+02  0.1296E+03
    -15.214  0.1917E+02  0.1299E+03
    -15.198  0.1882E+02  0.1302E+03
    -15.183  0.1843E+02  0.1305E+03
    -15.167  0.1800E+02  0.1308E+03
    -15.151  0.1754E+02  0.1310E+03
    -15.136  0.1705E+02  0.1313E+03
    -15.120  0.1656E+02  0.1316E+03
    -15.104  0.1606E+02  0.1318E+03
    -15.089  0.1558E+02  0.1321E+03
    -15.073  0.1511E+02  0.1323E+03
    -15.057  0.1468E+02  0.1325E+03
    -15.042  0.1428E+02  0.1327E+03
    -15.026  0.1393E+02  0.1330E+03
    -15.011  0.1364E+02  0.1332E+03
    -14.995  0.1340E+02  0.1334E+03
    -14.979  0.1322E+02  0.1336E+03
    -14.964  0.1311E+02  0.1338E+03
    -14.948  0.1307E+02  0.1340E+03
    -14.932  0.1309E+02  0.1342E+03
    -14.917  0.1318E+02  0.1344E+03
    -14.901  0.1333E+02  0.1346E+03
    -14.886  0.1355E+02  0.1348E+03
    -14.870  0.1382E+02  0.1350E+03
    -14.854  0.1414E+02  0.1353E+03
    -14.839  0.1451E+02  0.1355E+03
    -14.823  0.1491E+02  0.1357E+03
    -14.807  0.1534E+02  0.1360E+03
    -14.792  0.1579E+02  0.1362E+03
    -14.776  0.1624E+02  0.1365E+03
    -14.761  0.1670E+02  0.1367E+03
    -14.745  0.1715E+02  0.1370E+03
    -14.729  0.1759E+02  0.1373E+03
    -14.714  0.1800E+02  0.1375E+03
    -14.698  0.1839E+02  0.1378E+03
    -14.682  0.1876E+02  0.1381E+03
    -14.667  0.1910E+02  0.1384E+03
    -14.651  0.1941E+02  0.1387E+03
    -14.636  0.1970E+02  0.1390E+03
    -14.620  0.1997E+02  0.1394E+03
    -14.604  0.2021E+02  0.1397E+03
    -14.589  0.2044E+02  0.1400E+03
    -14.573  0.2066E+02  0.1403E+03
    -14.557  0.2087E+02  0.1406E+03
    -14.542  0.2106E+02  0.1410E+03
    -14.526  0.2124E+02  0.1413E+03
    -14.510  0.2140E+02  0.1416E+03
    -14.495  0.2155E+02  0.1420E+03
    -14.479  0.2168E+02  0.1423E+03
    -14.464  0.2178E+02  0.1426E+03
    -14.448  0.2186E+02  0.1430E+03
    -14.432  0.2191E+02  0.1433E+03
    -14.417  0.2193E+02  0.1437E+03
    -14.401  0.2191E+02  0.1440E+03
    -14.385  0.2187E+02  0.1444E+03
    -14.370  0.2180E+02  0.1447E+03
    -14.354  0.2170E+02  0.1450E+03
    -14.339  0.2159E+02  0.1454E+03
    -14.323  0.2148E+02  0.1457E+03
    -14.307  0.2136E+02  0.1460E+03
    -14.292  0.2126E+02  0.1464E+03
    -14.276  0.2118E+02  0.1467E+03
    -14.260  0.2113E+02  0.1470E+03
    -14.245  0.2112E+02  0.1474E+03
    -14.229  0.2116E+02  0.1477E+03
    -14.214  0.2125E+02  0.1480E+03
    -14.198  0.2140E+02  0.1484E+03
    -14.182  0.2162E+02  0.1487E+03
    -14.167  0.2189E+02  0.1490E+03
    -14.151  0.2221E+02  0.1494E+03
    -14.135  0.2259E+02  0.1497E+03
    -14.120  0.2300E+02  0.1501E+03
    -14.104  0.2345E+02  0.1505E+03
    -14.088  0.2392E+02  0.1508E+03
    -14.073  0.2440E+02  0.1512E+03
    -14.057  0.2488E+02  0.1516E+03
    -14.042  0.2534E+02  0.1520E+03
    -14.026  0.2578E+02  0.1524E+03
    -14.010  0.2618E+02  0.1528E+03
    -13.995  0.2654E+02  0.1532E+03
    -13.979  0.2685E+02  0.1537E+03
    -13.963  0.2710E+02  0.1541E+03
    -13.948  0.2729E+02  0.1545E+03
    -13.932  0.2743E+02  0.1549E+03
    -13.917  0.2752E+02  0.1554E+03
    -13.901  0.2755E+02  0.1558E+03
    -13.885  0.2754E+02  0.1562E+03
    -13.870  0.2749E+02  0.1567E+03
    -13.854  0.2740E+02  0.1571E+03
    -13.838  0.2730E+02  0.1575E+03
    -13.823  0.2718E+02  0.1579E+03
    -13.807  0.2705E+02  0.1584E+03
    -13.792  0.2692E+02  0.1588E+03
    -13.776  0.2679E+02  0.1592E+03
    -13.760  0.2667E+02  0.1596E+03
    -13.745  0.2657E+02  0.1600E+03
    -13.729  0.2647E+02  0.1604E+03
    -13.713  0.2640E+02  0.1609E+03
    -13.698  0.2633E+02  0.1613E+03
    -13.682  0.2628E+02  0.1617E+03
    -13.667  0.2625E+02  0.1621E+03
    -13.651  0.2622E+02  0.1625E+03
    -13.635  0.2620E+02  0.1629E+03
    -13.620  0.2619E+02  0.1633E+03
    -13.604  0.2617E+02  0.1637E+03
    -13.588  0.2616E+02  0.1641E+03
    -13.573  0.2614E+02  0.1645E+03
    -13.557  0.2612E+02  0.1650E+03
    -13.541  0.2608E+02  0.1654E+03
    -13.526  0.2604E+02  0.1658E+03
    -13.510  0.2599E+02  0.1662E+03
    -13.495  0.2592E+02  0.1666E+03
    -13.479  0.2585E+02  0.1670E+03
    -13.463  0.2576E+02  0.1674E+03
    -13.448  0.2566E+02  0.1678E+03
    -13.432  0.2555E+02  0.1682E+03
    -13.416  0.2543E+02  0.1686E+03
    -13.401  0.2530E+02  0.1690E+03
    -13.385  0.2516E+02  0.1694E+03
    -13.370  0.2501E+02  0.1698E+03
    -13.354  0.2485E+02  0.1702E+03
    -13.338  0.2468E+02  0.1705E+03
    -13.323  0.2451E+02  0.1709E+03
    -13.307  0.2434E+02  0.1713E+03
    -13.291  0.2416E+02  0.1717E+03
    -13.276  0.2398E+02  0.1721E+03
    -13.260  0.2381E+02  0.1724E+03
    -13.245  0.2364E+02  0.1728E+03
    -13.229  0.2347E+02  0.1732E+03
    -13.213  0.2332E+02  0.1735E+03
    -13.198  0.2317E+02  0.1739E+03
    -13.182  0.2304E+02  0.1743E+03
    -13.166  0.2292E+02  0.1746E+03
    -13.151  0.2282E+02  0.1750E+03
    -13.135  0.2273E+02  0.1753E+03
    -13.119  0.2266E+02  0.1757E+03
    -13.104  0.2261E+02  0.1760E+03
    -13.088  0.2258E+02  0.1764E+03
    -13.073  0.2256E+02  0.1767E+03
    -13.057  0.2255E+02  0.1771E+03
    -13.041  0.2256E+02  0.1774E+03
    -13.026  0.2258E+02  0.1778E+03
    -13.010  0.2260E+02  0.1781E+03
    -12.994  0.2263E+02  0.1785E+03
    -12.979  0.2265E+02  0.1789E+03
    -12.963  0.2266E+02  0.1792E+03
    -12.948  0.2266E+02  0.1796E+03
    -12.932  0.2263E+02  0.1799E+03
    -12.916  0.2258E+02  0.1803E+03
    -12.901  0.2250E+02  0.1806E+03
    -12.885  0.2239E+02  0.1810E+03
    -12.869  0.2224E+02  0.1813E+03
    -12.854  0.2205E+02  0.1817E+03
    -12.838  0.2183E+02  0.1820E+03
    -12.823  0.2157E+02  0.1823E+03
    -12.807  0.2128E+02  0.1827E+03
    -12.791  0.2097E+02  0.1830E+03
    -12.776  0.2064E+02  0.1833E+03
    -12.760  0.2030E+02  0.1836E+03
    -12.744  0.1997E+02  0.1840E+03
    -12.729  0.1965E+02  0.1843E+03
    -12.713  0.1935E+02  0.1846E+03
    -12.698  0.1909E+02  0.1849E+03
    -12.682  0.1887E+02  0.1852E+03
    -12.666  0.1869E+02  0.1854E+03
    -12.651  0.1858E+02  0.1857E+03
    -12.635  0.1851E+02  0.1860E+03
    -12.619  0.1851E+02  0.1863E+03
    -12.604  0.1857E+02  0.1866E+03
    -12.588  0.1869E+02  0.1869E+03
    -12.572  0.1887E+02  0.1872E+03
    -12.557  0.1909E+02  0.1875E+03
    -12.541  0.1935E+02  0.1878E+03
    -12.526  0.1966E+02  0.1881E+03
    -12.510  0.1998E+02  0.1884E+03
    -12.494  0.2033E+02  0.1887E+03
    -12.479  0.2069E+02  0.1891E+03
    -12.463  0.2105E+02  0.1894E+03
    -12.447  0.2140E+02  0.1897E+03
    -12.432  0.2174E+02  0.1901E+03
    -12.416  0.2206E+02  0.1904E+03
    -12.401  0.2234E+02  0.1908E+03
    -12.385  0.2259E+02  0.1911E+03
    -12.369  0.2280E+02  0.1915E+03
    -12.354  0.2297E+02  0.1918E+03
    -12.338  0.2309E+02  0.1922E+03
    -12.322  0.2316E+02  0.1925E+03
    -12.307  0.2318E+02  0.1929E+03
    -12.291  0.2316E+02  0.1933E+03
    -12.276  0.2309E+02  0.1936E+03
    -12.260  0.2298E+02  0.1940E+03
    -12.244  0.2284E+02  0.1943E+03