 214 214   0   0
  0.5626726E+02  0.3020676E-08  0.1993129E-08  0.2000000E-08  0.5000000E-15
  1.000000000000000E-004
  CAR 
 unknown system                          
      3.45896035    -24.23702779 2000     -3.60397488      1.00000000
    -24.237  0.0000E+00  0.0000E+00
    -24.223  0.0000E+00  0.0000E+00
    -24.209  0.0000E+00  0.0000E+00
    -24.195  0.0000E+00  0.0000E+00
    -24.182  0.0000E+00  0.0000E+00
    -24.168  0.0000E+00  0.0000E+00
    -24.154  0.0000E+00  0.0000E+00
    -24.140  0.0000E+00  0.0000E+00
    -24.126  0.0000E+00  0.0000E+00
    -24.112  0.0000E+00  0.0000E+00
    -24.098  0.0000E+00  0.0000E+00
    -24.085  0.0000E+00  0.0000E+00
    -24.071  0.0000E+00  0.0000E+00
    -24.057  0.0000E+00  0.0000E+00
    -24.043  0.0000E+00  0.0000E+00
    -24.029  0.0000E+00  0.0000E+00
    -24.015  0.0000E+00  0.0000E+00
    -24.001  0.0000E+00  0.0000E+00
    -23.988  0.0000E+00  0.0000E+00
    -23.974  0.0000E+00  0.0000E+00
    -23.960  0.0000E+00  0.0000E+00
    -23.946  0.0000E+00  0.0000E+00
    -23.932  0.0000E+00  0.0000E+00
    -23.918  0.0000E+00  0.0000E+00
    -23.905  0.0000E+00  0.0000E+00
    -23.891  0.0000E+00  0.0000E+00
    -23.877  0.0000E+00  0.0000E+00
    -23.863  0.0000E+00  0.0000E+00
    -23.849  0.0000E+00  0.0000E+00
    -23.835  0.0000E+00  0.0000E+00
    -23.821  0.0000E+00  0.0000E+00
    -23.808  0.0000E+00  0.0000E+00
    -23.794  0.0000E+00  0.0000E+00
    -23.780  0.0000E+00  0.0000E+00
    -23.766  0.0000E+00  0.0000E+00
    -23.752  0.0000E+00  0.0000E+00
    -23.738  0.0000E+00  0.0000E+00
    -23.724  0.0000E+00  0.0000E+00
    -23.711  0.0000E+00  0.0000E+00
    -23.697  0.0000E+00  0.0000E+00
    -23.683  0.0000E+00  0.0000E+00
    -23.669  0.0000E+00  0.0000E+00
    -23.655  0.0000E+00  0.0000E+00
    -23.641  0.0000E+00  0.0000E+00
    -23.627  0.0000E+00  0.0000E+00
    -23.614  0.0000E+00  0.0000E+00
    -23.600  0.0000E+00  0.0000E+00
    -23.586  0.0000E+00  0.0000E+00
    -23.572  0.0000E+00  0.0000E+00
    -23.558  0.0000E+00  0.0000E+00
    -23.544  0.0000E+00  0.0000E+00
    -23.530  0.0000E+00  0.0000E+00
    -23.517  0.0000E+00  0.0000E+00
    -23.503  0.0000E+00  0.0000E+00
    -23.489  0.0000E+00  0.0000E+00
    -23.475  0.0000E+00  0.0000E+00
    -23.461  0.0000E+00  0.0000E+00
    -23.447  0.0000E+00  0.0000E+00
    -23.433  0.0000E+00  0.0000E+00
    -23.420  0.2671E-14  0.3701E-16
    -23.406  0.5342E-14  0.1110E-15
    -23.392  0.5342E-14  0.1850E-15
    -23.378  0.1870E-13  0.4441E-15
    -23.364  0.3918E-13  0.9869E-15
    -23.350  0.8815E-13  0.2208E-14
    -23.336  0.1896E-12  0.4836E-14
    -23.323  0.4078E-12  0.1049E-13
    -23.309  0.8708E-12  0.2255E-13
    -23.295  0.1832E-11  0.4794E-13
    -23.281  0.3836E-11  0.1011E-12
    -23.267  0.7938E-11  0.2111E-12
    -23.253  0.1627E-10  0.4365E-12
    -23.239  0.3305E-10  0.8943E-12
    -23.226  0.6646E-10  0.1815E-11
    -23.212  0.1324E-09  0.3650E-11
    -23.198  0.2613E-09  0.7270E-11
    -23.184  0.5107E-09  0.1435E-10
    -23.170  0.9888E-09  0.2805E-10
    -23.156  0.1896E-08  0.5431E-10
    -23.142  0.3601E-08  0.1042E-09
    -23.129  0.6774E-08  0.1981E-09
    -23.115  0.1262E-07  0.3730E-09
    -23.101  0.2330E-07  0.6957E-09
    -23.087  0.4259E-07  0.1286E-08
    -23.073  0.7712E-07  0.2354E-08
    -23.059  0.1383E-06  0.4271E-08
    -23.046  0.2457E-06  0.7675E-08
    -23.032  0.4324E-06  0.1367E-07
    -23.018  0.7535E-06  0.2411E-07
    -23.004  0.1301E-05  0.4213E-07
    -22.990  0.2224E-05  0.7295E-07
    -22.976  0.3768E-05  0.1251E-06
    -22.962  0.6321E-05  0.2127E-06
    -22.949  0.1050E-04  0.3583E-06
    -22.935  0.1729E-04  0.5978E-06
    -22.921  0.2819E-04  0.9884E-06
    -22.907  0.4553E-04  0.1619E-05
    -22.893  0.7283E-04  0.2628E-05
    -22.879  0.1154E-03  0.4227E-05
    -22.865  0.1812E-03  0.6737E-05
    -22.852  0.2817E-03  0.1064E-04
    -22.838  0.4338E-03  0.1665E-04
    -22.824  0.6619E-03  0.2582E-04
    -22.810  0.1000E-02  0.3968E-04
    -22.796  0.1498E-02  0.6043E-04
    -22.782  0.2221E-02  0.9120E-04
    -22.768  0.3263E-02  0.1364E-03
    -22.755  0.4749E-02  0.2022E-03
    -22.741  0.6847E-02  0.2971E-03
    -22.727  0.9780E-02  0.4326E-03
    -22.713  0.1384E-01  0.6243E-03
    -22.699  0.1940E-01  0.8932E-03
    -22.685  0.2695E-01  0.1267E-02
    -22.671  0.3709E-01  0.1781E-02
    -22.658  0.5058E-01  0.2481E-02
    -22.644  0.6834E-01  0.3428E-02
    -22.630  0.9149E-01  0.4696E-02
    -22.616  0.1214E+00  0.6377E-02
    -22.602  0.1596E+00  0.8588E-02
    -22.588  0.2079E+00  0.1147E-01
    -22.574  0.2685E+00  0.1519E-01
    -22.561  0.3436E+00  0.1995E-01
    -22.547  0.4359E+00  0.2599E-01
    -22.533  0.5482E+00  0.3359E-01
    -22.519  0.6836E+00  0.4306E-01
    -22.505  0.8450E+00  0.5476E-01
    -22.491  0.1036E+01  0.6912E-01
    -22.477  0.1259E+01  0.8656E-01
    -22.464  0.1518E+01  0.1076E+00
    -22.450  0.1816E+01  0.1328E+00
    -22.436  0.2155E+01  0.1626E+00
    -22.422  0.2538E+01  0.1978E+00
    -22.408  0.2965E+01  0.2389E+00
    -22.394  0.3440E+01  0.2865E+00
    -22.380  0.3962E+01  0.3414E+00
    -22.367  0.4532E+01  0.4042E+00
    -22.353  0.5150E+01  0.4756E+00
    -22.339  0.5813E+01  0.5561E+00
    -22.325  0.6522E+01  0.6465E+00
    -22.311  0.7273E+01  0.7472E+00
    -22.297  0.8065E+01  0.8590E+00
    -22.283  0.8895E+01  0.9822E+00
    -22.270  0.9759E+01  0.1117E+01
    -22.256  0.1066E+02  0.1265E+01
    -22.242  0.1158E+02  0.1426E+01
    -22.228  0.1253E+02  0.1599E+01
    -22.214  0.1350E+02  0.1786E+01
    -22.200  0.1449E+02  0.1987E+01
    -22.186  0.1549E+02  0.2202E+01
    -22.173  0.1650E+02  0.2430E+01
    -22.159  0.1751E+02  0.2673E+01
    -22.145  0.1853E+02  0.2929E+01
    -22.131  0.1953E+02  0.3200E+01
    -22.117  0.2052E+02  0.3484E+01
    -22.103  0.2149E+02  0.3782E+01
    -22.090  0.2244E+02  0.4093E+01
    -22.076  0.2335E+02  0.4417E+01
    -22.062  0.2422E+02  0.4752E+01
    -22.048  0.2504E+02  0.5099E+01
    -22.034  0.2580E+02  0.5457E+01
    -22.020  0.2651E+02  0.5824E+01
    -22.006  0.2715E+02  0.6200E+01
    -21.993  0.2772E+02  0.6584E+01
    -21.979  0.2822E+02  0.6975E+01
    -21.965  0.2864E+02  0.7372E+01
    -21.951  0.2899E+02  0.7773E+01
    -21.937  0.2927E+02  0.8179E+01
    -21.923  0.2949E+02  0.8588E+01
    -21.909  0.2964E+02  0.8998E+01
    -21.896  0.2974E+02  0.9410E+01
    -21.882  0.2978E+02  0.9823E+01
    -21.868  0.2979E+02  0.1024E+02
    -21.854  0.2976E+02  0.1065E+02
    -21.840  0.2971E+02  0.1106E+02
    -21.826  0.2964E+02  0.1147E+02
    -21.812  0.2956E+02  0.1188E+02
    -21.799  0.2947E+02  0.1229E+02
    -21.785  0.2938E+02  0.1270E+02
    -21.771  0.2930E+02  0.1310E+02
    -21.757  0.2923E+02  0.1351E+02
    -21.743  0.2917E+02  0.1391E+02
    -21.729  0.2913E+02  0.1431E+02
    -21.715  0.2910E+02  0.1472E+02
    -21.702  0.2909E+02  0.1512E+02
    -21.688  0.2910E+02  0.1552E+02
    -21.674  0.2913E+02  0.1593E+02
    -21.660  0.2918E+02  0.1633E+02
    -21.646  0.2925E+02  0.1674E+02
    -21.632  0.2933E+02  0.1714E+02
    -21.618  0.2944E+02  0.1755E+02
    -21.605  0.2956E+02  0.1796E+02
    -21.591  0.2970E+02  0.1837E+02
    -21.577  0.2986E+02  0.1879E+02
    -21.563  0.3003E+02  0.1920E+02
    -21.549  0.3022E+02  0.1962E+02
    -21.535  0.3041E+02  0.2004E+02
    -21.521  0.3062E+02  0.2047E+02
    -21.508  0.3082E+02  0.2089E+02
    -21.494  0.3103E+02  0.2132E+02
    -21.480  0.3123E+02  0.2176E+02
    -21.466  0.3143E+02  0.2219E+02
    -21.452  0.3161E+02  0.2263E+02
    -21.438  0.3177E+02  0.2307E+02
    -21.424  0.3191E+02  0.2351E+02
    -21.411  0.3202E+02  0.2395E+02
    -21.397  0.3211E+02  0.2440E+02
    -21.383  0.3217E+02  0.2485E+02
    -21.369  0.3220E+02  0.2529E+02
    -21.355  0.3220E+02  0.2574E+02
    -21.341  0.3217E+02  0.2618E+02
    -21.327  0.3213E+02  0.2663E+02
    -21.314  0.3206E+02  0.2707E+02
    -21.300  0.3199E+02  0.2752E+02
    -21.286  0.3191E+02  0.2796E+02
    -21.272  0.3183E+02  0.2840E+02
    -21.258  0.3176E+02  0.2884E+02
    -21.244  0.3170E+02  0.2928E+02
    -21.231  0.3166E+02  0.2972E+02
    -21.217  0.3165E+02  0.3016E+02
    -21.203  0.3166E+02  0.3059E+02
    -21.189  0.3170E+02  0.3103E+02
    -21.175  0.3177E+02  0.3147E+02
    -21.161  0.3186E+02  0.3191E+02
    -21.147  0.3199E+02  0.3236E+02
    -21.134  0.3213E+02  0.3280E+02
    -21.120  0.3228E+02  0.3325E+02
    -21.106  0.3245E+02  0.3370E+02
    -21.092  0.3262E+02  0.3415E+02
    -21.078  0.3278E+02  0.3461E+02
    -21.064  0.3293E+02  0.3506E+02
    -21.050  0.3306E+02  0.3552E+02
    -21.037  0.3317E+02  0.3598E+02
    -21.023  0.3325E+02  0.3644E+02
    -21.009  0.3330E+02  0.3690E+02
    -20.995  0.3333E+02  0.3736E+02
    -20.981  0.3332E+02  0.3783E+02
    -20.967  0.3329E+02  0.3829E+02
    -20.953  0.3324E+02  0.3875E+02
    -20.940  0.3317E+02  0.3921E+02
    -20.926  0.3309E+02  0.3967E+02
    -20.912  0.3301E+02  0.4012E+02
    -20.898  0.3292E+02  0.4058E+02
    -20.884  0.3285E+02  0.4103E+02
    -20.870  0.3279E+02  0.4149E+02
    -20.856  0.3274E+02  0.4194E+02
    -20.843  0.3272E+02  0.4240E+02
    -20.829  0.3272E+02  0.4285E+02
    -20.815  0.3275E+02  0.4330E+02
    -20.801  0.3281E+02  0.4376E+02
    -20.787  0.3289E+02  0.4421E+02
    -20.773  0.3300E+02  0.4467E+02
    -20.759  0.3313E+02  0.4513E+02
    -20.746  0.3328E+02  0.4559E+02
    -20.732  0.3344E+02  0.4605E+02
    -20.718  0.3361E+02  0.4652E+02
    -20.704  0.3379E+02  0.4699E+02
    -20.690  0.3397E+02  0.4746E+02
    -20.676  0.3414E+02  0.4793E+02
    -20.662  0.3431E+02  0.4841E+02
    -20.649  0.3446E+02  0.4888E+02
    -20.635  0.3460E+02  0.4936E+02
    -20.621  0.3471E+02  0.4984E+02
    -20.607  0.3481E+02  0.5033E+02
    -20.593  0.3488E+02  0.5081E+02
    -20.579  0.3493E+02  0.5129E+02
    -20.565  0.3495E+02  0.5178E+02
    -20.552  0.3495E+02  0.5226E+02
    -20.538  0.3493E+02  0.5275E+02
    -20.524  0.3489E+02  0.5323E+02
    -20.510  0.3482E+02  0.5371E+02
    -20.496  0.3475E+02  0.5419E+02
    -20.482  0.3466E+02  0.5467E+02
    -20.468  0.3456E+02  0.5515E+02
    -20.455  0.3446E+02  0.5563E+02
    -20.441  0.3435E+02  0.5611E+02
    -20.427  0.3426E+02  0.5658E+02
    -20.413  0.3416E+02  0.5705E+02
    -20.399  0.3408E+02  0.5753E+02
    -20.385  0.3401E+02  0.5800E+02
    -20.372  0.3395E+02  0.5847E+02
    -20.358  0.3391E+02  0.5894E+02
    -20.344  0.3388E+02  0.5941E+02
    -20.330  0.3387E+02  0.5988E+02
    -20.316  0.3387E+02  0.6034E+02
    -20.302  0.3389E+02  0.6081E+02
    -20.288  0.3392E+02  0.6128E+02
    -20.275  0.3396E+02  0.6175E+02
    -20.261  0.3401E+02  0.6223E+02
    -20.247  0.3406E+02  0.6270E+02
    -20.233  0.3412E+02  0.6317E+02
    -20.219  0.3418E+02  0.6364E+02
    -20.205  0.3424E+02  0.6412E+02
    -20.191  0.3430E+02  0.6459E+02
    -20.178  0.3435E+02  0.6507E+02
    -20.164  0.3440E+02  0.6555E+02
    -20.150  0.3444E+02  0.6602E+02
    -20.136  0.3448E+02  0.6650E+02
    -20.122  0.3451E+02  0.6698E+02
    -20.108  0.3454E+02  0.6746E+02
    -20.094  0.3456E+02  0.6794E+02
    -20.081  0.3457E+02  0.6842E+02
    -20.067  0.3459E+02  0.6890E+02
    -20.053  0.3460E+02  0.6937E+02
    -20.039  0.3460E+02  0.6985E+02
    -20.025  0.3461E+02  0.7033E+02
    -20.011  0.3461E+02  0.7081E+02
    -19.997  0.3462E+02  0.7129E+02
    -19.984  0.3462E+02  0.7177E+02
    -19.970  0.3463E+02  0.7225E+02
    -19.956  0.3463E+02  0.7273E+02
    -19.942  0.3463E+02  0.7321E+02
    -19.928  0.3462E+02  0.7369E+02
    -19.914  0.3461E+02  0.7417E+02
    -19.900  0.3460E+02  0.7465E+02
    -19.887  0.3458E+02  0.7513E+02
    -19.873  0.3455E+02  0.7561E+02
    -19.859  0.3451E+02  0.7609E+02
    -19.845  0.3446E+02  0.7656E+02
    -19.831  0.3440E+02  0.7704E+02
    -19.817  0.3432E+02  0.7752E+02
    -19.803  0.3423E+02  0.7799E+02
    -19.790  0.3413E+02  0.7846E+02
    -19.776  0.3401E+02  0.7893E+02
    -19.762  0.3389E+02  0.7940E+02
    -19.748  0.3375E+02  0.7987E+02
    -19.734  0.3361E+02  0.8034E+02
    -19.720  0.3347E+02  0.8080E+02
    -19.706  0.3333E+02  0.8126E+02
    -19.693  0.3319E+02  0.8172E+02
    -19.679  0.3305E+02  0.8218E+02
    -19.665  0.3293E+02  0.8264E+02
    -19.651  0.3283E+02  0.8309E+02
    -19.637  0.3275E+02  0.8355E+02
    -19.623  0.3269E+02  0.8400E+02
    -19.609  0.3265E+02  0.8445E+02
    -19.596  0.3265E+02  0.8490E+02
    -19.582  0.3268E+02  0.8536E+02
    -19.568  0.3274E+02  0.8581E+02
    -19.554  0.3283E+02  0.8626E+02
    -19.540  0.3296E+02  0.8672E+02
    -19.526  0.3312E+02  0.8718E+02
    -19.512  0.3332E+02  0.8764E+02
    -19.499  0.3354E+02  0.8811E+02
    -19.485  0.3380E+02  0.8857E+02
    -19.471  0.3408E+02  0.8905E+02
    -19.457  0.3438E+02  0.8952E+02
    -19.443  0.3470E+02  0.9000E+02
    -19.429  0.3503E+02  0.9049E+02
    -19.416  0.3537E+02  0.9098E+02
    -19.402  0.3571E+02  0.9147E+02
    -19.388  0.3606E+02  0.9197E+02
    -19.374  0.3639E+02  0.9248E+02
    -19.360  0.3671E+02  0.9299E+02
    -19.346  0.3701E+02  0.9350E+02
    -19.332  0.3729E+02  0.9402E+02
    -19.319  0.3754E+02  0.9454E+02
    -19.305  0.3776E+02  0.9506E+02
    -19.291  0.3795E+02  0.9558E+02
    -19.277  0.3810E+02  0.9611E+02
    -19.263  0.3821E+02  0.9664E+02
    -19.249  0.3828E+02  0.9717E+02
    -19.235  0.3830E+02  0.9770E+02
    -19.222  0.3829E+02  0.9823E+02
    -19.208  0.3824E+02  0.9876E+02
    -19.194  0.3815E+02  0.9929E+02
    -19.180  0.3802E+02  0.9982E+02
    -19.166  0.3787E+02  0.1003E+03
    -19.152  0.3769E+02  0.1009E+03
    -19.138  0.3749E+02  0.1014E+03
    -19.125  0.3727E+02  0.1019E+03
    -19.111  0.3705E+02  0.1024E+03
    -19.097  0.3683E+02  0.1029E+03
    -19.083  0.3661E+02  0.1034E+03
    -19.069  0.3641E+02  0.1039E+03
    -19.055  0.3623E+02  0.1044E+03
    -19.041  0.3608E+02  0.1049E+03
    -19.028  0.3595E+02  0.1054E+03
    -19.014  0.3587E+02  0.1059E+03
    -19.000  0.3583E+02  0.1064E+03
    -18.986  0.3583E+02  0.1069E+03
    -18.972  0.3587E+02  0.1074E+03
    -18.958  0.3597E+02  0.1079E+03
    -18.944  0.3611E+02  0.1084E+03
    -18.931  0.3629E+02  0.1089E+03
    -18.917  0.3651E+02  0.1094E+03
    -18.903  0.3676E+02  0.1099E+03
    -18.889  0.3705E+02  0.1105E+03
    -18.875  0.3736E+02  0.1110E+03
    -18.861  0.3768E+02  0.1115E+03
    -18.847  0.3801E+02  0.1120E+03
    -18.834  0.3834E+02  0.1125E+03
    -18.820  0.3866E+02  0.1131E+03
    -18.806  0.3896E+02  0.1136E+03
    -18.792  0.3924E+02  0.1142E+03
    -18.778  0.3950E+02  0.1147E+03
    -18.764  0.3972E+02  0.1153E+03
    -18.750  0.3991E+02  0.1158E+03
    -18.737  0.4005E+02  0.1164E+03
    -18.723  0.4016E+02  0.1169E+03
    -18.709  0.4023E+02  0.1175E+03
    -18.695  0.4027E+02  0.1180E+03
    -18.681  0.4027E+02  0.1186E+03
    -18.667  0.4025E+02  0.1192E+03
    -18.653  0.4021E+02  0.1197E+03
    -18.640  0.4015E+02  0.1203E+03
    -18.626  0.4008E+02  0.1208E+03
    -18.612  0.4001E+02  0.1214E+03
    -18.598  0.3995E+02  0.1219E+03
    -18.584  0.3990E+02  0.1225E+03
    -18.570  0.3986E+02  0.1230E+03
    -18.557  0.3983E+02  0.1236E+03
    -18.543  0.3983E+02  0.1241E+03
    -18.529  0.3985E+02  0.1247E+03
    -18.515  0.3989E+02  0.1253E+03
    -18.501  0.3994E+02  0.1258E+03
    -18.487  0.4001E+02  0.1264E+03
    -18.473  0.4009E+02  0.1269E+03
    -18.460  0.4018E+02  0.1275E+03
    -18.446  0.4027E+02  0.1280E+03
    -18.432  0.4036E+02  0.1286E+03
    -18.418  0.4044E+02  0.1291E+03
    -18.404  0.4050E+02  0.1297E+03
    -18.390  0.4055E+02  0.1303E+03
    -18.376  0.4057E+02  0.1308E+03
    -18.363  0.4057E+02  0.1314E+03
    -18.349  0.4054E+02  0.1320E+03
    -18.335  0.4048E+02  0.1325E+03
    -18.321  0.4039E+02  0.1331E+03
    -18.307  0.4028E+02  0.1336E+03
    -18.293  0.4015E+02  0.1342E+03
    -18.279  0.3999E+02  0.1347E+03
    -18.266  0.3982E+02  0.1353E+03
    -18.252  0.3963E+02  0.1358E+03
    -18.238  0.3944E+02  0.1364E+03
    -18.224  0.3925E+02  0.1369E+03
    -18.210  0.3906E+02  0.1375E+03
    -18.196  0.3887E+02  0.1380E+03
    -18.182  0.3870E+02  0.1386E+03
    -18.169  0.3854E+02  0.1391E+03
    -18.155  0.3840E+02  0.1396E+03
    -18.141  0.3828E+02  0.1401E+03
    -18.127  0.3818E+02  0.1407E+03
    -18.113  0.3811E+02  0.1412E+03
    -18.099  0.3805E+02  0.1417E+03
    -18.085  0.3802E+02  0.1423E+03
    -18.072  0.3800E+02  0.1428E+03
    -18.058  0.3801E+02  0.1433E+03
    -18.044  0.3802E+02  0.1438E+03
    -18.030  0.3805E+02  0.1444E+03
    -18.016  0.3809E+02  0.1449E+03
    -18.002  0.3814E+02  0.1454E+03
    -17.988  0.3820E+02  0.1460E+03
    -17.975  0.3826E+02  0.1465E+03
    -17.961  0.3832E+02  0.1470E+03
    -17.947  0.3839E+02  0.1475E+03
    -17.933  0.3846E+02  0.1481E+03
    -17.919  0.3853E+02  0.1486E+03
    -17.905  0.3861E+02  0.1491E+03
    -17.891  0.3869E+02  0.1497E+03
    -17.878  0.3878E+02  0.1502E+03
    -17.864  0.3888E+02  0.1508E+03
    -17.850  0.3899E+02  0.1513E+03
    -17.836  0.3911E+02  0.1518E+03
    -17.822  0.3924E+02  0.1524E+03
    -17.808  0.3939E+02  0.1529E+03
    -17.794  0.3955E+02  0.1535E+03
    -17.781  0.3972E+02  0.1540E+03
    -17.767  0.3990E+02  0.1546E+03
    -17.753  0.4010E+02  0.1551E+03
    -17.739  0.4030E+02  0.1557E+03
    -17.725  0.4052E+02  0.1563E+03
    -17.711  0.4073E+02  0.1568E+03
    -17.698  0.4095E+02  0.1574E+03
    -17.684  0.4117E+02  0.1580E+03
    -17.670  0.4138E+02  0.1585E+03
    -17.656  0.4159E+02  0.1591E+03
    -17.642  0.4178E+02  0.1597E+03
    -17.628  0.4196E+02  0.1603E+03
    -17.614  0.4211E+02  0.1609E+03
    -17.601  0.4225E+02  0.1614E+03
    -17.587  0.4236E+02  0.1620E+03
    -17.573  0.4243E+02  0.1626E+03
    -17.559  0.4248E+02  0.1632E+03
    -17.545  0.4249E+02  0.1638E+03
    -17.531  0.4245E+02  0.1644E+03
    -17.517  0.4238E+02  0.1650E+03
    -17.504  0.4227E+02  0.1656E+03
    -17.490  0.4211E+02  0.1661E+03
    -17.476  0.4190E+02  0.1667E+03
    -17.462  0.4165E+02  0.1673E+03
    -17.448  0.4136E+02  0.1679E+03
    -17.434  0.4102E+02  0.1684E+03
    -17.420  0.4065E+02  0.1690E+03
    -17.407  0.4024E+02  0.1696E+03
    -17.393  0.3980E+02  0.1701E+03
    -17.379  0.3934E+02  0.1707E+03
    -17.365  0.3885E+02  0.1712E+03
    -17.351  0.3836E+02  0.1717E+03
    -17.337  0.3785E+02  0.1722E+03
    -17.323  0.3734E+02  0.1728E+03
    -17.310  0.3684E+02  0.1733E+03
    -17.296  0.3635E+02  0.1738E+03
    -17.282  0.3587E+02  0.1743E+03
    -17.268  0.3541E+02  0.1748E+03
    -17.254  0.3497E+02  0.1752E+03
    -17.240  0.3455E+02  0.1757E+03
    -17.226  0.3415E+02  0.1762E+03
    -17.213  0.3377E+02  0.1767E+03
    -17.199  0.3340E+02  0.1771E+03
    -17.185  0.3306E+02  0.1776E+03
    -17.171  0.3272E+02  0.1780E+03
    -17.157  0.3240E+02  0.1785E+03
    -17.143  0.3208E+02  0.1789E+03
    -17.129  0.3177E+02  0.1794E+03
    -17.116  0.3147E+02  0.1798E+03
    -17.102  0.3117E+02  0.1802E+03
    -17.088  0.3088E+02  0.1807E+03
    -17.074  0.3059E+02  0.1811E+03
    -17.060  0.3031E+02  0.1815E+03
    -17.046  0.3004E+02  0.1819E+03
    -17.032  0.2978E+02  0.1823E+03
    -17.019  0.2954E+02  0.1828E+03
    -17.005  0.2932E+02  0.1832E+03
    -16.991  0.2912E+02  0.1836E+03
    -16.977  0.2896E+02  0.1840E+03
    -16.963  0.2882E+02  0.1844E+03
    -16.949  0.2871E+02  0.1848E+03
    -16.935  0.2863E+02  0.1852E+03
    -16.922  0.2858E+02  0.1856E+03
    -16.908  0.2856E+02  0.1859E+03
    -16.894  0.2857E+02  0.1863E+03
    -16.880  0.2861E+02  0.1867E+03
    -16.866  0.2866E+02  0.1871E+03
    -16.852  0.2872E+02  0.1875E+03
    -16.838  0.2879E+02  0.1879E+03
    -16.825  0.2886E+02  0.1883E+03
    -16.811  0.2893E+02  0.1887E+03
    -16.797  0.2899E+02  0.1891E+03
    -16.783  0.2903E+02  0.1895E+03
    -16.769  0.2905E+02  0.1899E+03
    -16.755  0.2904E+02  0.1903E+03
    -16.742  0.2901E+02  0.1907E+03
    -16.728  0.2895E+02  0.1911E+03
    -16.714  0.2887E+02  0.1915E+03
    -16.700  0.2876E+02  0.1919E+03
    -16.686  0.2862E+02  0.1923E+03
    -16.672  0.2847E+02  0.1927E+03
    -16.658  0.2831E+02  0.1931E+03
    -16.645  0.2813E+02  0.1935E+03
    -16.631  0.2795E+02  0.1939E+03
    -16.617  0.2777E+02  0.1943E+03
    -16.603  0.2760E+02  0.1947E+03
    -16.589  0.2744E+02  0.1951E+03
    -16.575  0.2729E+02  0.1954E+03
    -16.561  0.2716E+02  0.1958E+03
    -16.548  0.2705E+02  0.1962E+03
    -16.534  0.2696E+02  0.1966E+03
    -16.520  0.2689E+02  0.1969E+03
    -16.506  0.2683E+02  0.1973E+03
    -16.492  0.2679E+02  0.1977E+03
    -16.478  0.2677E+02  0.1980E+03
    -16.464  0.2676E+02  0.1984E+03
    -16.451  0.2676E+02  0.1988E+03
    -16.437  0.2676E+02  0.1992E+03
    -16.423  0.2677E+02  0.1995E+03
    -16.409  0.2677E+02  0.1999E+03
    -16.395  0.2678E+02  0.2003E+03
    -16.381  0.2679E+02  0.2006E+03
    -16.367  0.2680E+02  0.2010E+03
    -16.354  0.2680E+02  0.2014E+03
    -16.340  0.2681E+02  0.2018E+03
    -16.326  0.2682E+02  0.2021E+03
    -16.312  0.2684E+02  0.2025E+03
    -16.298  0.2686E+02  0.2029E+03
    -16.284  0.2690E+02  0.2032E+03
    -16.270  0.2696E+02  0.2036E+03
    -16.257  0.2703E+02  0.2040E+03
    -16.243  0.2713E+02  0.2044E+03
    -16.229  0.2726E+02  0.2047E+03
    -16.215  0.2741E+02  0.2051E+03
    -16.201  0.2761E+02  0.2055E+03
    -16.187  0.2784E+02  0.2059E+03
    -16.173  0.2811E+02  0.2063E+03
    -16.160  0.2842E+02  0.2067E+03
    -16.146  0.2878E+02  0.2071E+03
    -16.132  0.2917E+02  0.2075E+03
    -16.118  0.2960E+02  0.2079E+03
    -16.104  0.3006E+02  0.2083E+03
    -16.090  0.3055E+02  0.2087E+03
    -16.076  0.3107E+02  0.2092E+03
    -16.063  0.3160E+02  0.2096E+03
    -16.049  0.3214E+02  0.2100E+03
    -16.035  0.3267E+02  0.2105E+03
    -16.021  0.3320E+02  0.2110E+03
    -16.007  0.3371E+02  0.2114E+03
    -15.993  0.3419E+02  0.2119E+03
    -15.979  0.3463E+02  0.2124E+03
    -15.966  0.3504E+02  0.2129E+03
    -15.952  0.3539E+02  0.2134E+03
    -15.938  0.3570E+02  0.2138E+03
    -15.924  0.3595E+02  0.2143E+03
    -15.910  0.3614E+02  0.2148E+03
    -15.896  0.3628E+02  0.2153E+03
    -15.883  0.3636E+02  0.2158E+03
    -15.869  0.3640E+02  0.2164E+03
    -15.855  0.3640E+02  0.2169E+03
    -15.841  0.3636E+02  0.2174E+03
    -15.827  0.3629E+02  0.2179E+03
    -15.813  0.3620E+02  0.2184E+03
    -15.799  0.3610E+02  0.2189E+03
    -15.786  0.3600E+02  0.2194E+03
    -15.772  0.3591E+02  0.2199E+03
    -15.758  0.3583E+02  0.2204E+03
    -15.744  0.3577E+02  0.2209E+03
    -15.730  0.3574E+02  0.2213E+03
    -15.716  0.3574E+02  0.2218E+03
    -15.702  0.3578E+02  0.2223E+03
    -15.689  0.3586E+02  0.2228E+03
    -15.675  0.3597E+02  0.2233E+03
    -15.661  0.3612E+02  0.2238E+03
    -15.647  0.3631E+02  0.2243E+03
    -15.633  0.3652E+02  0.2248E+03
    -15.619  0.3677E+02  0.2254E+03
    -15.605  0.3703E+02  0.2259E+03
    -15.592  0.3731E+02  0.2264E+03
    -15.578  0.3760E+02  0.2269E+03
    -15.564  0.3789E+02  0.2274E+03
    -15.550  0.3818E+02  0.2280E+03
    -15.536  0.3847E+02  0.2285E+03
    -15.522  0.3874E+02  0.2290E+03
    -15.508  0.3900E+02  0.2296E+03
    -15.495  0.3925E+02  0.2301E+03
    -15.481  0.3948E+02  0.2307E+03
    -15.467  0.3969E+02  0.2312E+03
    -15.453  0.3989E+02  0.2318E+03
    -15.439  0.4007E+02  0.2323E+03
    -15.425  0.4024E+02  0.2329E+03
    -15.411  0.4040E+02  0.2334E+03
    -15.398  0.4054E+02  0.2340E+03
    -15.384  0.4068E+02  0.2346E+03
    -15.370  0.4082E+02  0.2351E+03
    -15.356  0.4095E+02  0.2357E+03
    -15.342  0.4107E+02  0.2363E+03
    -15.328  0.4120E+02  0.2368E+03
    -15.314  0.4132E+02  0.2374E+03
    -15.301  0.4144E+02  0.2380E+03
    -15.287  0.4156E+02  0.2386E+03
    -15.273  0.4167E+02  0.2391E+03
    -15.259  0.4178E+02  0.2397E+03
    -15.245  0.4188E+02  0.2403E+03
    -15.231  0.4197E+02  0.2409E+03
    -15.217  0.4205E+02  0.2415E+03
    -15.204  0.4211E+02  0.2420E+03
    -15.190  0.4216E+02  0.2426E+03
    -15.176  0.4219E+02  0.2432E+03
    -15.162  0.4221E+02  0.2438E+03
    -15.148  0.4220E+02  0.2444E+03
    -15.134  0.4217E+02  0.2450E+03
    -15.120  0.4212E+02  0.2455E+03
    -15.107  0.4205E+02  0.2461E+03
    -15.093  0.4195E+02  0.2467E+03
    -15.079  0.4182E+02  0.2473E+03
    -15.065  0.4167E+02  0.2479E+03
    -15.051  0.4149E+02  0.2484E+03
    -15.037  0.4129E+02  0.2490E+03
    -15.024  0.4106E+02  0.2496E+03
    -15.010  0.4081E+02  0.2501E+03
    -14.996  0.4054E+02  0.2507E+03
    -14.982  0.4025E+02  0.2513E+03
    -14.968  0.3993E+02  0.2518E+03
    -14.954  0.3961E+02  0.2524E+03
    -14.940  0.3927E+02  0.2529E+03
    -14.927  0.3892E+02  0.2535E+03
    -14.913  0.3857E+02  0.2540E+03
    -14.899  0.3822E+02  0.2545E+03
    -14.885  0.3787E+02  0.2550E+03
    -14.871  0.3752E+02  0.2556E+03
    -14.857  0.3719E+02  0.2561E+03
    -14.843  0.3688E+02  0.2566E+03
    -14.830  0.3658E+02  0.2571E+03
    -14.816  0.3631E+02  0.2576E+03
    -14.802  0.3607E+02  0.2581E+03
    -14.788  0.3586E+02  0.2586E+03
    -14.774  0.3569E+02  0.2591E+03
    -14.760  0.3555E+02  0.2596E+03
    -14.746  0.3546E+02  0.2601E+03
    -14.733  0.3540E+02  0.2606E+03
    -14.719  0.3538E+02  0.2611E+03
    -14.705  0.3541E+02  0.2615E+03
    -14.691  0.3547E+02  0.2620E+03
    -14.677  0.3556E+02  0.2625E+03
    -14.663  0.3568E+02  0.2630E+03
    -14.649  0.3582E+02  0.2635E+03
    -14.636  0.3599E+02  0.2640E+03
    -14.622  0.3616E+02  0.2645E+03
    -14.608  0.3635E+02  0.2650E+03
    -14.594  0.3653E+02  0.2655E+03
    -14.580  0.3671E+02  0.2660E+03
    -14.566  0.3688E+02  0.2665E+03
    -14.552  0.3704E+02  0.2671E+03
    -14.539  0.3718E+02  0.2676E+03
    -14.525  0.3731E+02  0.2681E+03
    -14.511  0.3741E+02  0.2686E+03
    -14.497  0.3748E+02  0.2691E+03
    -14.483  0.3754E+02  0.2696E+03
    -14.469  0.3757E+02  0.2702E+03
    -14.455  0.3758E+02  0.2707E+03
    -14.442  0.3756E+02  0.2712E+03
    -14.428  0.3753E+02  0.2717E+03
    -14.414  0.3748E+02  0.2723E+03
    -14.400  0.3741E+02  0.2728E+03
    -14.386  0.3732E+02  0.2733E+03
    -14.372  0.3722E+02  0.2738E+03
    -14.358  0.3711E+02  0.2743E+03
    -14.345  0.3698E+02  0.2748E+03
    -14.331  0.3684E+02  0.2753E+03
    -14.317  0.3669E+02  0.2758E+03
    -14.303  0.3653E+02  0.2764E+03
    -14.289  0.3635E+02  0.2769E+03
    -14.275  0.3616E+02  0.2774E+03
    -14.261  0.3596E+02  0.2779E+03
    -14.248  0.3574E+02  0.2784E+03
    -14.234  0.3552E+02  0.2788E+03
    -14.220  0.3528E+02  0.2793E+03
    -14.206  0.3504E+02  0.2798E+03
    -14.192  0.3479E+02  0.2803E+03
    -14.178  0.3454E+02  0.2808E+03
    -14.164  0.3430E+02  0.2813E+03
    -14.151  0.3406E+02  0.2817E+03
    -14.137  0.3384E+02  0.2822E+03
    -14.123  0.3364E+02  0.2827E+03
    -14.109  0.3347E+02  0.2831E+03
    -14.095  0.3332E+02  0.2836E+03
    -14.081  0.3321E+02  0.2840E+03
    -14.068  0.3313E+02  0.2845E+03
    -14.054  0.3310E+02  0.2850E+03
    -14.040  0.3310E+02  0.2854E+03
    -14.026  0.3314E+02  0.2859E+03
    -14.012  0.3322E+02  0.2863E+03
    -13.998  0.3333E+02  0.2868E+03
    -13.984  0.3348E+02  0.2873E+03
    -13.971  0.3364E+02  0.2877E+03
    -13.957  0.3383E+02  0.2882E+03
    -13.943  0.3402E+02  0.2887E+03
    -13.929  0.3422E+02  0.2891E+03
    -13.915  0.3442E+02  0.2896E+03
    -13.901  0.3462E+02  0.2901E+03
    -13.887  0.3480E+02  0.2906E+03
    -13.874  0.3496E+02  0.2911E+03
    -13.860  0.3510E+02  0.2916E+03
    -13.846  0.3521E+02  0.2920E+03
    -13.832  0.3530E+02  0.2925E+03
    -13.818  0.3536E+02  0.2930E+03
    -13.804  0.3539E+02  0.2935E+03
    -13.790  0.3538E+02  0.2940E+03
    -13.777  0.3535E+02  0.2945E+03
    -13.763  0.3529E+02  0.2950E+03
    -13.749  0.3519E+02  0.2955E+03
    -13.735  0.3508E+02  0.2960E+03
    -13.721  0.3493E+02  0.2964E+03
    -13.707  0.3476E+02  0.2969E+03
    -13.693  0.3457E+02  0.2974E+03
    -13.680  0.3435E+02  0.2979E+03
    -13.666  0.3412E+02  0.2983E+03
    -13.652  0.3387E+02  0.2988E+03
    -13.638  0.3361E+02  0.2993E+03
    -13.624  0.3335E+02  0.2997E+03
    -13.610  0.3307E+02  0.3002E+03
    -13.596  0.3280E+02  0.3007E+03
    -13.583  0.3253E+02  0.3011E+03
    -13.569  0.3227E+02  0.3016E+03
    -13.555  0.3203E+02  0.3020E+03
    -13.541  0.3180E+02  0.3024E+03
    -13.527  0.3161E+02  0.3029E+03
    -13.513  0.3144E+02  0.3033E+03
    -13.499  0.3131E+02  0.3037E+03
    -13.486  0.3121E+02  0.3042E+03
    -13.472  0.3116E+02  0.3046E+03
    -13.458  0.3115E+02  0.3050E+03
    -13.444  0.3119E+02  0.3055E+03
    -13.430  0.3127E+02  0.3059E+03
    -13.416  0.3139E+02  0.3063E+03
    -13.402  0.3155E+02  0.3068E+03
    -13.389  0.3175E+02  0.3072E+03
    -13.375  0.3199E+02  0.3077E+03
    -13.361  0.3225E+02  0.3081E+03
    -13.347  0.3253E+02  0.3086E+03
    -13.333  0.3283E+02  0.3090E+03
    -13.319  0.3314E+02  0.3095E+03
    -13.305  0.3345E+02  0.3099E+03
    -13.292  0.3375E+02  0.3104E+03
    -13.278  0.3405E+02  0.3109E+03
    -13.264  0.3434E+02  0.3114E+03
    -13.250  0.3461E+02  0.3118E+03
    -13.236  0.3486E+02  0.3123E+03
    -13.222  0.3508E+02  0.3128E+03
    -13.209  0.3528E+02  0.3133E+03
    -13.195  0.3545E+02  0.3138E+03
    -13.181  0.3560E+02  0.3143E+03
    -13.167  0.3572E+02  0.3148E+03
    -13.153  0.3582E+02  0.3153E+03
    -13.139  0.3590E+02  0.3158E+03
    -13.125  0.3596E+02  0.3163E+03
    -13.112  0.3600E+02  0.3168E+03
    -13.098  0.3603E+02  0.3173E+03
    -13.084  0.3606E+02  0.3178E+03
    -13.070  0.3608E+02  0.3183E+03
    -13.056  0.3610E+02  0.3188E+03
    -13.042  0.3612E+02  0.3193E+03
    -13.028  0.3616E+02  0.3198E+03
    -13.015  0.3620E+02  0.3203E+03
    -13.001  0.3626E+02  0.3208E+03
    -12.987  0.3634E+02  0.3213E+03
    -12.973  0.3645E+02  0.3218E+03
    -12.959  0.3657E+02  0.3223E+03
    -12.945  0.3672E+02  0.3228E+03
    -12.931  0.3690E+02  0.3233E+03
    -12.918  0.3711E+02  0.3238E+03
    -12.904  0.3734E+02  0.3243E+03
    -12.890  0.3760E+02  0.3249E+03
    -12.876  0.3788E+02  0.3254E+03
    -12.862  0.3818E+02  0.3259E+03
    -12.848  0.3850E+02  0.3264E+03
    -12.834  0.3883E+02  0.3270E+03
    -12.821  0.3916E+02  0.3275E+03
    -12.807  0.3950E+02  0.3281E+03