  96  96   0   0
  0.5092810E+02  0.1680096E-08  0.1455006E-08  0.2000000E-08  0.5000000E-15
  1.000000000000000E-004
  CAR 
 unknown system                          
      3.57825950    -24.30563129 2000     -3.69267108      1.00000000
    -24.306  0.0000E+00  0.0000E+00
    -24.292  0.0000E+00  0.0000E+00
    -24.278  0.0000E+00  0.0000E+00
    -24.264  0.0000E+00  0.0000E+00
    -24.250  0.0000E+00  0.0000E+00
    -24.236  0.0000E+00  0.0000E+00
    -24.222  0.0000E+00  0.0000E+00
    -24.208  0.0000E+00  0.0000E+00
    -24.194  0.0000E+00  0.0000E+00
    -24.180  0.0000E+00  0.0000E+00
    -24.166  0.0000E+00  0.0000E+00
    -24.152  0.0000E+00  0.0000E+00
    -24.138  0.0000E+00  0.0000E+00
    -24.124  0.0000E+00  0.0000E+00
    -24.110  0.0000E+00  0.0000E+00
    -24.096  0.0000E+00  0.0000E+00
    -24.082  0.0000E+00  0.0000E+00
    -24.068  0.0000E+00  0.0000E+00
    -24.055  0.0000E+00  0.0000E+00
    -24.041  0.0000E+00  0.0000E+00
    -24.027  0.0000E+00  0.0000E+00
    -24.013  0.0000E+00  0.0000E+00
    -23.999  0.0000E+00  0.0000E+00
    -23.985  0.0000E+00  0.0000E+00
    -23.971  0.0000E+00  0.0000E+00
    -23.957  0.0000E+00  0.0000E+00
    -23.943  0.0000E+00  0.0000E+00
    -23.929  0.0000E+00  0.0000E+00
    -23.915  0.0000E+00  0.0000E+00
    -23.901  0.0000E+00  0.0000E+00
    -23.887  0.0000E+00  0.0000E+00
    -23.873  0.0000E+00  0.0000E+00
    -23.859  0.0000E+00  0.0000E+00
    -23.845  0.0000E+00  0.0000E+00
    -23.831  0.0000E+00  0.0000E+00
    -23.817  0.0000E+00  0.0000E+00
    -23.803  0.0000E+00  0.0000E+00
    -23.790  0.0000E+00  0.0000E+00
    -23.776  0.0000E+00  0.0000E+00
    -23.762  0.0000E+00  0.0000E+00
    -23.748  0.0000E+00  0.0000E+00
    -23.734  0.0000E+00  0.0000E+00
    -23.720  0.0000E+00  0.0000E+00
    -23.706  0.0000E+00  0.0000E+00
    -23.692  0.0000E+00  0.0000E+00
    -23.678  0.0000E+00  0.0000E+00
    -23.664  0.0000E+00  0.0000E+00
    -23.650  0.0000E+00  0.0000E+00
    -23.636  0.0000E+00  0.0000E+00
    -23.622  0.0000E+00  0.0000E+00
    -23.608  0.0000E+00  0.0000E+00
    -23.594  0.0000E+00  0.0000E+00
    -23.580  0.0000E+00  0.0000E+00
    -23.566  0.0000E+00  0.0000E+00
    -23.552  0.0000E+00  0.0000E+00
    -23.538  0.0000E+00  0.0000E+00
    -23.524  0.0000E+00  0.0000E+00
    -23.511  0.0000E+00  0.0000E+00
    -23.497  0.0000E+00  0.0000E+00
    -23.483  0.8844E-15  0.1234E-16
    -23.469  0.2653E-14  0.4934E-16
    -23.455  0.8844E-14  0.1727E-15
    -23.441  0.1503E-13  0.3824E-15
    -23.427  0.3449E-13  0.8635E-15
    -23.413  0.7605E-13  0.1924E-14
    -23.399  0.1680E-12  0.4268E-14
    -23.385  0.3573E-12  0.9252E-14
    -23.371  0.7712E-12  0.2001E-13
    -23.357  0.1634E-11  0.4281E-13
    -23.343  0.3433E-11  0.9069E-13
    -23.329  0.7138E-11  0.1903E-12
    -23.315  0.1471E-10  0.3954E-12
    -23.301  0.3001E-10  0.8140E-12
    -23.287  0.6065E-10  0.1660E-11
    -23.273  0.1214E-09  0.3353E-11
    -23.259  0.2406E-09  0.6710E-11
    -23.246  0.4724E-09  0.1330E-10
    -23.232  0.9186E-09  0.2611E-10
    -23.218  0.1769E-08  0.5079E-10
    -23.204  0.3374E-08  0.9786E-10
    -23.190  0.6374E-08  0.1868E-09
    -23.176  0.1193E-07  0.3531E-09
    -23.162  0.2210E-07  0.6614E-09
    -23.148  0.4056E-07  0.1227E-08
    -23.134  0.7373E-07  0.2256E-08
    -23.120  0.1327E-06  0.4107E-08
    -23.106  0.2367E-06  0.7409E-08
    -23.092  0.4181E-06  0.1324E-07
    -23.078  0.7313E-06  0.2344E-07
    -23.064  0.1267E-05  0.4111E-07
    -23.050  0.2174E-05  0.7144E-07
    -23.036  0.3695E-05  0.1230E-06
    -23.022  0.6220E-05  0.2098E-06
    -23.008  0.1037E-04  0.3544E-06
    -22.994  0.1713E-04  0.5934E-06
    -22.980  0.2802E-04  0.9842E-06
    -22.967  0.4539E-04  0.1617E-05
    -22.953  0.7285E-04  0.2634E-05
    -22.939  0.1158E-03  0.4249E-05
    -22.925  0.1823E-03  0.6792E-05
    -22.911  0.2843E-03  0.1076E-04
    -22.897  0.4392E-03  0.1688E-04
    -22.883  0.6720E-03  0.2626E-04
    -22.869  0.1019E-02  0.4046E-04
    -22.855  0.1529E-02  0.6179E-04
    -22.841  0.2274E-02  0.9351E-04
    -22.827  0.3350E-02  0.1402E-03
    -22.813  0.4889E-02  0.2084E-03
    -22.799  0.7067E-02  0.3070E-03
    -22.785  0.1012E-01  0.4482E-03
    -22.771  0.1436E-01  0.6485E-03
    -22.757  0.2018E-01  0.9299E-03
    -22.743  0.2809E-01  0.1322E-02
    -22.729  0.3875E-01  0.1862E-02
    -22.715  0.5295E-01  0.2601E-02
    -22.702  0.7169E-01  0.3601E-02
    -22.688  0.9616E-01  0.4942E-02
    -22.674  0.1278E+00  0.6725E-02
    -22.660  0.1683E+00  0.9072E-02
    -22.646  0.2196E+00  0.1213E-01
    -22.632  0.2838E+00  0.1609E-01
    -22.618  0.3636E+00  0.2117E-01
    -22.604  0.4615E+00  0.2760E-01
    -22.590  0.5805E+00  0.3570E-01
    -22.576  0.7237E+00  0.4580E-01
    -22.562  0.8940E+00  0.5827E-01
    -22.548  0.1094E+01  0.7353E-01
    -22.534  0.1328E+01  0.9206E-01
    -22.520  0.1597E+01  0.1143E+00
    -22.506  0.1904E+01  0.1409E+00
    -22.492  0.2249E+01  0.1723E+00
    -22.478  0.2634E+01  0.2090E+00
    -22.464  0.3058E+01  0.2517E+00
    -22.450  0.3519E+01  0.3008E+00
    -22.436  0.4016E+01  0.3568E+00
    -22.423  0.4542E+01  0.4201E+00
    -22.409  0.5094E+01  0.4912E+00
    -22.395  0.5664E+01  0.5702E+00
    -22.381  0.6245E+01  0.6573E+00
    -22.367  0.6827E+01  0.7525E+00
    -22.353  0.7402E+01  0.8558E+00
    -22.339  0.7958E+01  0.9668E+00
    -22.325  0.8486E+01  0.1085E+01
    -22.311  0.8975E+01  0.1210E+01
    -22.297  0.9415E+01  0.1342E+01
    -22.283  0.9798E+01  0.1478E+01
    -22.269  0.1012E+02  0.1619E+01
    -22.255  0.1036E+02  0.1764E+01
    -22.241  0.1054E+02  0.1911E+01
    -22.227  0.1063E+02  0.2059E+01
    -22.213  0.1066E+02  0.2208E+01
    -22.199  0.1061E+02  0.2356E+01
    -22.185  0.1049E+02  0.2502E+01
    -22.171  0.1031E+02  0.2646E+01
    -22.157  0.1008E+02  0.2787E+01
    -22.144  0.9814E+01  0.2924E+01
    -22.130  0.9519E+01  0.3056E+01
    -22.116  0.9209E+01  0.3185E+01
    -22.102  0.8900E+01  0.3309E+01
    -22.088  0.8602E+01  0.3429E+01
    -22.074  0.8329E+01  0.3545E+01
    -22.060  0.8093E+01  0.3658E+01
    -22.046  0.7902E+01  0.3768E+01
    -22.032  0.7765E+01  0.3877E+01
    -22.018  0.7688E+01  0.3984E+01
    -22.004  0.7672E+01  0.4091E+01
    -21.990  0.7720E+01  0.4198E+01
    -21.976  0.7829E+01  0.4308E+01
    -21.962  0.7995E+01  0.4419E+01
    -21.948  0.8211E+01  0.4534E+01
    -21.934  0.8469E+01  0.4652E+01
    -21.920  0.8759E+01  0.4774E+01
    -21.906  0.9070E+01  0.4901E+01
    -21.892  0.9392E+01  0.5032E+01
    -21.879  0.9712E+01  0.5167E+01
    -21.865  0.1002E+02  0.5307E+01
    -21.851  0.1030E+02  0.5451E+01
    -21.837  0.1056E+02  0.5598E+01
    -21.823  0.1077E+02  0.5748E+01
    -21.809  0.1094E+02  0.5901E+01
    -21.795  0.1107E+02  0.6055E+01
    -21.781  0.1114E+02  0.6211E+01
    -21.767  0.1117E+02  0.6366E+01
    -21.753  0.1116E+02  0.6522E+01
    -21.739  0.1111E+02  0.6677E+01
    -21.725  0.1103E+02  0.6831E+01
    -21.711  0.1093E+02  0.6983E+01
    -21.697  0.1081E+02  0.7134E+01
    -21.683  0.1070E+02  0.7283E+01
    -21.669  0.1059E+02  0.7431E+01
    -21.655  0.1049E+02  0.7577E+01
    -21.641  0.1042E+02  0.7723E+01
    -21.627  0.1038E+02  0.7868E+01
    -21.613  0.1038E+02  0.8012E+01
    -21.600  0.1041E+02  0.8158E+01
    -21.586  0.1049E+02  0.8304E+01
    -21.572  0.1062E+02  0.8452E+01
    -21.558  0.1078E+02  0.8602E+01
    -21.544  0.1098E+02  0.8756E+01
    -21.530  0.1121E+02  0.8912E+01
    -21.516  0.1147E+02  0.9072E+01
    -21.502  0.1174E+02  0.9236E+01
    -21.488  0.1203E+02  0.9403E+01
    -21.474  0.1232E+02  0.9575E+01
    -21.460  0.1261E+02  0.9751E+01
    -21.446  0.1289E+02  0.9931E+01
    -21.432  0.1315E+02  0.1011E+02
    -21.418  0.1339E+02  0.1030E+02
    -21.404  0.1360E+02  0.1049E+02
    -21.390  0.1379E+02  0.1068E+02
    -21.376  0.1394E+02  0.1088E+02
    -21.362  0.1406E+02  0.1107E+02
    -21.348  0.1414E+02  0.1127E+02
    -21.335  0.1420E+02  0.1147E+02
    -21.321  0.1422E+02  0.1167E+02
    -21.307  0.1422E+02  0.1187E+02
    -21.293  0.1419E+02  0.1206E+02
    -21.279  0.1415E+02  0.1226E+02
    -21.265  0.1408E+02  0.1246E+02
    -21.251  0.1401E+02  0.1265E+02
    -21.237  0.1392E+02  0.1285E+02
    -21.223  0.1384E+02  0.1304E+02
    -21.209  0.1375E+02  0.1323E+02
    -21.195  0.1368E+02  0.1342E+02
    -21.181  0.1361E+02  0.1361E+02
    -21.167  0.1356E+02  0.1380E+02
    -21.153  0.1353E+02  0.1399E+02
    -21.139  0.1352E+02  0.1418E+02
    -21.125  0.1354E+02  0.1437E+02
    -21.111  0.1359E+02  0.1456E+02
    -21.097  0.1366E+02  0.1475E+02
    -21.083  0.1377E+02  0.1494E+02
    -21.069  0.1390E+02  0.1513E+02
    -21.056  0.1407E+02  0.1533E+02
    -21.042  0.1425E+02  0.1553E+02
    -21.028  0.1447E+02  0.1573E+02
    -21.014  0.1470E+02  0.1594E+02
    -21.000  0.1494E+02  0.1614E+02
    -20.986  0.1520E+02  0.1636E+02
    -20.972  0.1546E+02  0.1657E+02
    -20.958  0.1571E+02  0.1679E+02
    -20.944  0.1596E+02  0.1701E+02
    -20.930  0.1620E+02  0.1724E+02
    -20.916  0.1642E+02  0.1747E+02
    -20.902  0.1662E+02  0.1770E+02
    -20.888  0.1680E+02  0.1794E+02
    -20.874  0.1694E+02  0.1817E+02
    -20.860  0.1706E+02  0.1841E+02
    -20.846  0.1714E+02  0.1865E+02
    -20.832  0.1719E+02  0.1889E+02
    -20.818  0.1721E+02  0.1913E+02
    -20.804  0.1719E+02  0.1937E+02
    -20.791  0.1715E+02  0.1961E+02
    -20.777  0.1708E+02  0.1985E+02
    -20.763  0.1699E+02  0.2008E+02
    -20.749  0.1689E+02  0.2032E+02
    -20.735  0.1677E+02  0.2055E+02
    -20.721  0.1664E+02  0.2078E+02
    -20.707  0.1651E+02  0.2101E+02
    -20.693  0.1638E+02  0.2124E+02
    -20.679  0.1627E+02  0.2147E+02
    -20.665  0.1616E+02  0.2170E+02
    -20.651  0.1606E+02  0.2192E+02
    -20.637  0.1599E+02  0.2214E+02
    -20.623  0.1594E+02  0.2236E+02
    -20.609  0.1590E+02  0.2259E+02
    -20.595  0.1589E+02  0.2281E+02
    -20.581  0.1590E+02  0.2303E+02
    -20.567  0.1593E+02  0.2325E+02
    -20.553  0.1598E+02  0.2347E+02
    -20.539  0.1604E+02  0.2370E+02
    -20.525  0.1611E+02  0.2392E+02
    -20.512  0.1619E+02  0.2415E+02
    -20.498  0.1626E+02  0.2438E+02
    -20.484  0.1634E+02  0.2460E+02
    -20.470  0.1641E+02  0.2483E+02
    -20.456  0.1647E+02  0.2506E+02
    -20.442  0.1652E+02  0.2529E+02
    -20.428  0.1654E+02  0.2552E+02
    -20.414  0.1654E+02  0.2575E+02
    -20.400  0.1652E+02  0.2598E+02
    -20.386  0.1647E+02  0.2621E+02
    -20.372  0.1639E+02  0.2644E+02
    -20.358  0.1629E+02  0.2667E+02
    -20.344  0.1615E+02  0.2690E+02
    -20.330  0.1599E+02  0.2712E+02
    -20.316  0.1579E+02  0.2734E+02
    -20.302  0.1557E+02  0.2756E+02
    -20.288  0.1533E+02  0.2777E+02
    -20.274  0.1506E+02  0.2798E+02
    -20.260  0.1478E+02  0.2819E+02
    -20.246  0.1448E+02  0.2839E+02
    -20.233  0.1417E+02  0.2859E+02
    -20.219  0.1386E+02  0.2878E+02
    -20.205  0.1355E+02  0.2897E+02
    -20.191  0.1325E+02  0.2915E+02
    -20.177  0.1296E+02  0.2933E+02
    -20.163  0.1268E+02  0.2951E+02
    -20.149  0.1243E+02  0.2968E+02
    -20.135  0.1220E+02  0.2985E+02
    -20.121  0.1200E+02  0.3002E+02
    -20.107  0.1184E+02  0.3019E+02
    -20.093  0.1171E+02  0.3035E+02
    -20.079  0.1162E+02  0.3051E+02
    -20.065  0.1157E+02  0.3067E+02
    -20.051  0.1156E+02  0.3083E+02
    -20.037  0.1158E+02  0.3100E+02
    -20.023  0.1164E+02  0.3116E+02
    -20.009  0.1173E+02  0.3132E+02
    -19.995  0.1185E+02  0.3149E+02
    -19.981  0.1200E+02  0.3166E+02
    -19.968  0.1217E+02  0.3183E+02
    -19.954  0.1236E+02  0.3200E+02
    -19.940  0.1256E+02  0.3217E+02
    -19.926  0.1277E+02  0.3235E+02
    -19.912  0.1300E+02  0.3253E+02
    -19.898  0.1322E+02  0.3272E+02
    -19.884  0.1345E+02  0.3290E+02
    -19.870  0.1367E+02  0.3309E+02
    -19.856  0.1389E+02  0.3329E+02
    -19.842  0.1411E+02  0.3349E+02
    -19.828  0.1431E+02  0.3369E+02
    -19.814  0.1451E+02  0.3389E+02
    -19.800  0.1470E+02  0.3409E+02
    -19.786  0.1488E+02  0.3430E+02
    -19.772  0.1504E+02  0.3451E+02
    -19.758  0.1520E+02  0.3472E+02
    -19.744  0.1534E+02  0.3494E+02
    -19.730  0.1547E+02  0.3515E+02
    -19.716  0.1559E+02  0.3537E+02
    -19.702  0.1569E+02  0.3559E+02
    -19.689  0.1577E+02  0.3581E+02
    -19.675  0.1584E+02  0.3603E+02
    -19.661  0.1589E+02  0.3625E+02
    -19.647  0.1593E+02  0.3647E+02
    -19.633  0.1594E+02  0.3670E+02
    -19.619  0.1594E+02  0.3692E+02
    -19.605  0.1592E+02  0.3714E+02
    -19.591  0.1588E+02  0.3736E+02
    -19.577  0.1581E+02  0.3758E+02
    -19.563  0.1573E+02  0.3780E+02
    -19.549  0.1564E+02  0.3802E+02
    -19.535  0.1553E+02  0.3824E+02
    -19.521  0.1541E+02  0.3845E+02
    -19.507  0.1528E+02  0.3866E+02
    -19.493  0.1515E+02  0.3888E+02
    -19.479  0.1501E+02  0.3908E+02
    -19.465  0.1488E+02  0.3929E+02
    -19.451  0.1476E+02  0.3950E+02
    -19.437  0.1465E+02  0.3970E+02
    -19.424  0.1455E+02  0.3991E+02
    -19.410  0.1448E+02  0.4011E+02
    -19.396  0.1442E+02  0.4031E+02
    -19.382  0.1438E+02  0.4051E+02
    -19.368  0.1437E+02  0.4071E+02
    -19.354  0.1438E+02  0.4091E+02
    -19.340  0.1442E+02  0.4111E+02
    -19.326  0.1447E+02  0.4131E+02
    -19.312  0.1455E+02  0.4152E+02
    -19.298  0.1465E+02  0.4172E+02
    -19.284  0.1476E+02  0.4193E+02
    -19.270  0.1489E+02  0.4213E+02
    -19.256  0.1502E+02  0.4234E+02
    -19.242  0.1517E+02  0.4256E+02
    -19.228  0.1531E+02  0.4277E+02
    -19.214  0.1545E+02  0.4298E+02
    -19.200  0.1559E+02  0.4320E+02
    -19.186  0.1571E+02  0.4342E+02
    -19.172  0.1583E+02  0.4364E+02
    -19.158  0.1592E+02  0.4386E+02
    -19.145  0.1600E+02  0.4409E+02
    -19.131  0.1606E+02  0.4431E+02
    -19.117  0.1609E+02  0.4454E+02
    -19.103  0.1610E+02  0.4476E+02
    -19.089  0.1609E+02  0.4498E+02
    -19.075  0.1606E+02  0.4521E+02
    -19.061  0.1600E+02  0.4543E+02
    -19.047  0.1593E+02  0.4565E+02
    -19.033  0.1585E+02  0.4587E+02
    -19.019  0.1575E+02  0.4609E+02
    -19.005  0.1565E+02  0.4631E+02
    -18.991  0.1555E+02  0.4653E+02
    -18.977  0.1545E+02  0.4675E+02
    -18.963  0.1535E+02  0.4696E+02
    -18.949  0.1527E+02  0.4717E+02
    -18.935  0.1520E+02  0.4738E+02
    -18.921  0.1515E+02  0.4760E+02
    -18.907  0.1512E+02  0.4781E+02
    -18.893  0.1512E+02  0.4802E+02
    -18.880  0.1513E+02  0.4823E+02
    -18.866  0.1517E+02  0.4844E+02
    -18.852  0.1523E+02  0.4865E+02
    -18.838  0.1531E+02  0.4887E+02
    -18.824  0.1540E+02  0.4908E+02
    -18.810  0.1551E+02  0.4930E+02
    -18.796  0.1563E+02  0.4952E+02
    -18.782  0.1576E+02  0.4974E+02
    -18.768  0.1590E+02  0.4996E+02
    -18.754  0.1604E+02  0.5018E+02
    -18.740  0.1617E+02  0.5041E+02
    -18.726  0.1631E+02  0.5063E+02
    -18.712  0.1644E+02  0.5086E+02
    -18.698  0.1657E+02  0.5109E+02
    -18.684  0.1668E+02  0.5133E+02
    -18.670  0.1679E+02  0.5156E+02
    -18.656  0.1689E+02  0.5180E+02
    -18.642  0.1698E+02  0.5203E+02
    -18.628  0.1706E+02  0.5227E+02
    -18.614  0.1713E+02  0.5251E+02
    -18.601  0.1720E+02  0.5275E+02
    -18.587  0.1726E+02  0.5299E+02
    -18.573  0.1731E+02  0.5323E+02
    -18.559  0.1736E+02  0.5347E+02
    -18.545  0.1741E+02  0.5372E+02
    -18.531  0.1746E+02  0.5396E+02
    -18.517  0.1751E+02  0.5421E+02
    -18.503  0.1756E+02  0.5445E+02
    -18.489  0.1762E+02  0.5470E+02
    -18.475  0.1769E+02  0.5494E+02
    -18.461  0.1777E+02  0.5519E+02
    -18.447  0.1785E+02  0.5544E+02
    -18.433  0.1794E+02  0.5569E+02
    -18.419  0.1804E+02  0.5594E+02
    -18.405  0.1815E+02  0.5619E+02
    -18.391  0.1827E+02  0.5645E+02
    -18.377  0.1839E+02  0.5671E+02
    -18.363  0.1851E+02  0.5696E+02
    -18.349  0.1864E+02  0.5722E+02
    -18.335  0.1875E+02  0.5749E+02
    -18.322  0.1886E+02  0.5775E+02
    -18.308  0.1896E+02  0.5801E+02
    -18.294  0.1904E+02  0.5828E+02
    -18.280  0.1909E+02  0.5855E+02
    -18.266  0.1911E+02  0.5881E+02
    -18.252  0.1910E+02  0.5908E+02
    -18.238  0.1905E+02  0.5934E+02
    -18.224  0.1896E+02  0.5961E+02
    -18.210  0.1882E+02  0.5987E+02
    -18.196  0.1863E+02  0.6013E+02
    -18.182  0.1839E+02  0.6039E+02
    -18.168  0.1811E+02  0.6064E+02
    -18.154  0.1778E+02  0.6089E+02
    -18.140  0.1741E+02  0.6113E+02
    -18.126  0.1700E+02  0.6137E+02
    -18.112  0.1657E+02  0.6160E+02
    -18.098  0.1611E+02  0.6182E+02
    -18.084  0.1565E+02  0.6204E+02
    -18.070  0.1518E+02  0.6225E+02
    -18.057  0.1472E+02  0.6246E+02
    -18.043  0.1429E+02  0.6266E+02
    -18.029  0.1388E+02  0.6285E+02
    -18.015  0.1352E+02  0.6304E+02
    -18.001  0.1320E+02  0.6322E+02
    -17.987  0.1294E+02  0.6341E+02
    -17.973  0.1275E+02  0.6358E+02
    -17.959  0.1262E+02  0.6376E+02
    -17.945  0.1257E+02  0.6393E+02
    -17.931  0.1259E+02  0.6411E+02
    -17.917  0.1268E+02  0.6429E+02
    -17.903  0.1283E+02  0.6447E+02
    -17.889  0.1305E+02  0.6465E+02
    -17.875  0.1332E+02  0.6483E+02
    -17.861  0.1363E+02  0.6502E+02
    -17.847  0.1398E+02  0.6522E+02
    -17.833  0.1435E+02  0.6542E+02
    -17.819  0.1474E+02  0.6562E+02
    -17.805  0.1513E+02  0.6584E+02
    -17.791  0.1551E+02  0.6605E+02
    -17.778  0.1587E+02  0.6627E+02
    -17.764  0.1621E+02  0.6650E+02
    -17.750  0.1651E+02  0.6673E+02
    -17.736  0.1678E+02  0.6696E+02
    -17.722  0.1700E+02  0.6720E+02
    -17.708  0.1717E+02  0.6744E+02
    -17.694  0.1730E+02  0.6768E+02
    -17.680  0.1739E+02  0.6792E+02
    -17.666  0.1743E+02  0.6817E+02
    -17.652  0.1744E+02  0.6841E+02
    -17.638  0.1741E+02  0.6865E+02
    -17.624  0.1736E+02  0.6890E+02
    -17.610  0.1729E+02  0.6914E+02
    -17.596  0.1720E+02  0.6938E+02
    -17.582  0.1711E+02  0.6962E+02
    -17.568  0.1701E+02  0.6985E+02
    -17.554  0.1691E+02  0.7009E+02
    -17.540  0.1682E+02  0.7032E+02
    -17.526  0.1673E+02  0.7056E+02
    -17.513  0.1664E+02  0.7079E+02
    -17.499  0.1657E+02  0.7102E+02
    -17.485  0.1649E+02  0.7125E+02
    -17.471  0.1642E+02  0.7148E+02
    -17.457  0.1636E+02  0.7171E+02
    -17.443  0.1629E+02  0.7193E+02
    -17.429  0.1622E+02  0.7216E+02
    -17.415  0.1615E+02  0.7239E+02
    -17.401  0.1607E+02  0.7261E+02
    -17.387  0.1599E+02  0.7283E+02
    -17.373  0.1591E+02  0.7306E+02
    -17.359  0.1582E+02  0.7328E+02
    -17.345  0.1573E+02  0.7350E+02
    -17.331  0.1564E+02  0.7371E+02
    -17.317  0.1555E+02  0.7393E+02
    -17.303  0.1547E+02  0.7415E+02
    -17.289  0.1540E+02  0.7436E+02
    -17.275  0.1533E+02  0.7457E+02
    -17.261  0.1529E+02  0.7479E+02
    -17.247  0.1525E+02  0.7500E+02
    -17.234  0.1524E+02  0.7521E+02
    -17.220  0.1523E+02  0.7543E+02
    -17.206  0.1525E+02  0.7564E+02
    -17.192  0.1528E+02  0.7585E+02
    -17.178  0.1532E+02  0.7607E+02
    -17.164  0.1538E+02  0.7628E+02
    -17.150  0.1544E+02  0.7650E+02
    -17.136  0.1551E+02  0.7671E+02
    -17.122  0.1558E+02  0.7693E+02
    -17.108  0.1565E+02  0.7715E+02
    -17.094  0.1571E+02  0.7737E+02
    -17.080  0.1576E+02  0.7759E+02
    -17.066  0.1580E+02  0.7781E+02
    -17.052  0.1584E+02  0.7803E+02
    -17.038  0.1586E+02  0.7825E+02
    -17.024  0.1586E+02  0.7847E+02
    -17.010  0.1585E+02  0.7869E+02
    -16.996  0.1584E+02  0.7891E+02
    -16.982  0.1581E+02  0.7913E+02
    -16.968  0.1577E+02  0.7935E+02
    -16.955  0.1573E+02  0.7957E+02
    -16.941  0.1569E+02  0.7979E+02
    -16.927  0.1565E+02  0.8001E+02
    -16.913  0.1561E+02  0.8023E+02
    -16.899  0.1558E+02  0.8044E+02
    -16.885  0.1556E+02  0.8066E+02
    -16.871  0.1555E+02  0.8088E+02
    -16.857  0.1555E+02  0.8109E+02
    -16.843  0.1556E+02  0.8131E+02
    -16.829  0.1558E+02  0.8153E+02
    -16.815  0.1561E+02  0.8175E+02
    -16.801  0.1565E+02  0.8197E+02
    -16.787  0.1569E+02  0.8218E+02
    -16.773  0.1574E+02  0.8240E+02
    -16.759  0.1578E+02  0.8262E+02
    -16.745  0.1581E+02  0.8284E+02
    -16.731  0.1584E+02  0.8307E+02
    -16.717  0.1586E+02  0.8329E+02
    -16.703  0.1587E+02  0.8351E+02
    -16.690  0.1587E+02  0.8373E+02
    -16.676  0.1585E+02  0.8395E+02
    -16.662  0.1582E+02  0.8417E+02
    -16.648  0.1578E+02  0.8439E+02
    -16.634  0.1573E+02  0.8461E+02
    -16.620  0.1568E+02  0.8483E+02
    -16.606  0.1562E+02  0.8505E+02
    -16.592  0.1556E+02  0.8526E+02
    -16.578  0.1550E+02  0.8548E+02
    -16.564  0.1545E+02  0.8570E+02
    -16.550  0.1541E+02  0.8591E+02
    -16.536  0.1537E+02  0.8613E+02
    -16.522  0.1535E+02  0.8634E+02
    -16.508  0.1535E+02  0.8655E+02
    -16.494  0.1536E+02  0.8677E+02
    -16.480  0.1538E+02  0.8698E+02
    -16.466  0.1542E+02  0.8720E+02
    -16.452  0.1547E+02  0.8741E+02
    -16.438  0.1554E+02  0.8763E+02
    -16.424  0.1562E+02  0.8785E+02
    -16.411  0.1570E+02  0.8807E+02
    -16.397  0.1578E+02  0.8829E+02
    -16.383  0.1587E+02  0.8851E+02
    -16.369  0.1595E+02  0.8873E+02
    -16.355  0.1602E+02  0.8895E+02
    -16.341  0.1608E+02  0.8918E+02
    -16.327  0.1613E+02  0.8940E+02
    -16.313  0.1615E+02  0.8963E+02
    -16.299  0.1616E+02  0.8985E+02
    -16.285  0.1614E+02  0.9008E+02
    -16.271  0.1609E+02  0.9030E+02
    -16.257  0.1601E+02  0.9053E+02
    -16.243  0.1591E+02  0.9075E+02
    -16.229  0.1577E+02  0.9097E+02
    -16.215  0.1561E+02  0.9119E+02
    -16.201  0.1543E+02  0.9140E+02
    -16.187  0.1522E+02  0.9161E+02
    -16.173  0.1500E+02  0.9182E+02
    -16.159  0.1476E+02  0.9203E+02
    -16.146  0.1452E+02  0.9223E+02
    -16.132  0.1427E+02  0.9243E+02
    -16.118  0.1403E+02  0.9263E+02
    -16.104  0.1380E+02  0.9282E+02
    -16.090  0.1358E+02  0.9301E+02
    -16.076  0.1339E+02  0.9320E+02
    -16.062  0.1322E+02  0.9338E+02
    -16.048  0.1307E+02  0.9356E+02
    -16.034  0.1297E+02  0.9374E+02
    -16.020  0.1289E+02  0.9392E+02
    -16.006  0.1285E+02  0.9410E+02
    -15.992  0.1284E+02  0.9428E+02
    -15.978  0.1287E+02  0.9446E+02
    -15.964  0.1292E+02  0.9464E+02
    -15.950  0.1300E+02  0.9482E+02
    -15.936  0.1310E+02  0.9500E+02
    -15.922  0.1322E+02  0.9519E+02
    -15.908  0.1336E+02  0.9538E+02
    -15.894  0.1350E+02  0.9556E+02
    -15.880  0.1365E+02  0.9575E+02
    -15.867  0.1380E+02  0.9595E+02
    -15.853  0.1395E+02  0.9614E+02
    -15.839  0.1410E+02  0.9634E+02
    -15.825  0.1424E+02  0.9654E+02
    -15.811  0.1437E+02  0.9674E+02
    -15.797  0.1450E+02  0.9694E+02
    -15.783  0.1463E+02  0.9714E+02
    -15.769  0.1475E+02  0.9735E+02
    -15.755  0.1487E+02  0.9756E+02
    -15.741  0.1498E+02  0.9777E+02
    -15.727  0.1509E+02  0.9798E+02
    -15.713  0.1520E+02  0.9819E+02
    -15.699  0.1531E+02  0.9840E+02
    -15.685  0.1542E+02  0.9862E+02
    -15.671  0.1553E+02  0.9883E+02
    -15.657  0.1564E+02  0.9905E+02
    -15.643  0.1575E+02  0.9927E+02
    -15.629  0.1587E+02  0.9949E+02
    -15.615  0.1598E+02  0.9972E+02
    -15.602  0.1609E+02  0.9994E+02
    -15.588  0.1620E+02  0.1002E+03
    -15.574  0.1630E+02  0.1004E+03
    -15.560  0.1640E+02  0.1006E+03
    -15.546  0.1649E+02  0.1009E+03
    -15.532  0.1657E+02  0.1011E+03
    -15.518  0.1663E+02  0.1013E+03
    -15.504  0.1669E+02  0.1015E+03
    -15.490  0.1673E+02  0.1018E+03
    -15.476  0.1674E+02  0.1020E+03
    -15.462  0.1675E+02  0.1022E+03
    -15.448  0.1673E+02  0.1025E+03
    -15.434  0.1669E+02  0.1027E+03
    -15.420  0.1663E+02  0.1029E+03
    -15.406  0.1655E+02  0.1032E+03
    -15.392  0.1646E+02  0.1034E+03
    -15.378  0.1635E+02  0.1036E+03
    -15.364  0.1623E+02  0.1039E+03
    -15.350  0.1610E+02  0.1041E+03
    -15.336  0.1596E+02  0.1043E+03
    -15.323  0.1583E+02  0.1045E+03
    -15.309  0.1570E+02  0.1047E+03
    -15.295  0.1557E+02  0.1050E+03
    -15.281  0.1546E+02  0.1052E+03
    -15.267  0.1536E+02  0.1054E+03
    -15.253  0.1528E+02  0.1056E+03
    -15.239  0.1522E+02  0.1058E+03
    -15.225  0.1518E+02  0.1060E+03
    -15.211  0.1517E+02  0.1062E+03
    -15.197  0.1518E+02  0.1065E+03
    -15.183  0.1522E+02  0.1067E+03
    -15.169  0.1529E+02  0.1069E+03
    -15.155  0.1538E+02  0.1071E+03
    -15.141  0.1549E+02  0.1073E+03
    -15.127  0.1562E+02  0.1075E+03
    -15.113  0.1577E+02  0.1078E+03
    -15.099  0.1593E+02  0.1080E+03
    -15.085  0.1610E+02  0.1082E+03
    -15.071  0.1628E+02  0.1084E+03
    -15.057  0.1646E+02  0.1087E+03
    -15.044  0.1663E+02  0.1089E+03
    -15.030  0.1680E+02  0.1091E+03
    -15.016  0.1696E+02  0.1094E+03
    -15.002  0.1710E+02  0.1096E+03
    -14.988  0.1722E+02  0.1098E+03
    -14.974  0.1731E+02  0.1101E+03
    -14.960  0.1739E+02  0.1103E+03
    -14.946  0.1743E+02  0.1106E+03
    -14.932  0.1745E+02  0.1108E+03
    -14.918  0.1744E+02  0.1110E+03
    -14.904  0.1740E+02  0.1113E+03
    -14.890  0.1733E+02  0.1115E+03
    -14.876  0.1723E+02  0.1118E+03
    -14.862  0.1711E+02  0.1120E+03
    -14.848  0.1696E+02  0.1122E+03
    -14.834  0.1679E+02  0.1125E+03
    -14.820  0.1661E+02  0.1127E+03
    -14.806  0.1641E+02  0.1129E+03
    -14.792  0.1621E+02  0.1132E+03
    -14.779  0.1600E+02  0.1134E+03
    -14.765  0.1578E+02  0.1136E+03
    -14.751  0.1557E+02  0.1138E+03
    -14.737  0.1536E+02  0.1140E+03
    -14.723  0.1517E+02  0.1143E+03
    -14.709  0.1498E+02  0.1145E+03
    -14.695  0.1481E+02  0.1147E+03
    -14.681  0.1466E+02  0.1149E+03
    -14.667  0.1453E+02  0.1151E+03
    -14.653  0.1442E+02  0.1153E+03
    -14.639  0.1434E+02  0.1155E+03
    -14.625  0.1428E+02  0.1157E+03
    -14.611  0.1426E+02  0.1159E+03
    -14.597  0.1425E+02  0.1161E+03
    -14.583  0.1428E+02  0.1163E+03
    -14.569  0.1433E+02  0.1165E+03
    -14.555  0.1441E+02  0.1167E+03
    -14.541  0.1451E+02  0.1169E+03
    -14.527  0.1463E+02  0.1171E+03
    -14.513  0.1477E+02  0.1173E+03
    -14.500  0.1492E+02  0.1175E+03
    -14.486  0.1508E+02  0.1177E+03
    -14.472  0.1525E+02  0.1179E+03
    -14.458  0.1542E+02  0.1181E+03
    -14.444  0.1558E+02  0.1184E+03
    -14.430  0.1574E+02  0.1186E+03
    -14.416  0.1588E+02  0.1188E+03
    -14.402  0.1601E+02  0.1190E+03
    -14.388  0.1611E+02  0.1192E+03
    -14.374  0.1620E+02  0.1195E+03
    -14.360  0.1626E+02  0.1197E+03
    -14.346  0.1630E+02  0.1199E+03
    -14.332  0.1631E+02  0.1202E+03
    -14.318  0.1630E+02  0.1204E+03
    -14.304  0.1626E+02  0.1206E+03
    -14.290  0.1620E+02  0.1208E+03
    -14.276  0.1612E+02  0.1211E+03
    -14.262  0.1603E+02  0.1213E+03
    -14.248  0.1593E+02  0.1215E+03
    -14.235  0.1582E+02  0.1217E+03
    -14.221  0.1571E+02  0.1219E+03
    -14.207  0.1560E+02  0.1222E+03
    -14.193  0.1550E+02  0.1224E+03
    -14.179  0.1542E+02  0.1226E+03
    -14.165  0.1535E+02  0.1228E+03
    -14.151  0.1530E+02  0.1230E+03
    -14.137  0.1528E+02  0.1232E+03
    -14.123  0.1528E+02  0.1234E+03
    -14.109  0.1531E+02  0.1237E+03
    -14.095  0.1536E+02  0.1239E+03
    -14.081  0.1543E+02  0.1241E+03
    -14.067  0.1552E+02  0.1243E+03
    -14.053  0.1562E+02  0.1245E+03
    -14.039  0.1574E+02  0.1247E+03
    -14.025  0.1587E+02  0.1250E+03
    -14.011  0.1599E+02  0.1252E+03
    -13.997  0.1612E+02  0.1254E+03
    -13.983  0.1623E+02  0.1256E+03
    -13.969  0.1634E+02  0.1259E+03
    -13.956  0.1643E+02  0.1261E+03
    -13.942  0.1650E+02  0.1263E+03
    -13.928  0.1655E+02  0.1266E+03
    -13.914  0.1658E+02  0.1268E+03
    -13.900  0.1660E+02  0.1270E+03
    -13.886  0.1659E+02  0.1272E+03
    -13.872  0.1657E+02  0.1275E+03
    -13.858  0.1653E+02  0.1277E+03
    -13.844  0.1649E+02  0.1279E+03
    -13.830  0.1643E+02  0.1282E+03
    -13.816  0.1637E+02  0.1284E+03
    -13.802  0.1631E+02  0.1286E+03
    -13.788  0.1625E+02  0.1289E+03
    -13.774  0.1619E+02  0.1291E+03
    -13.760  0.1614E+02  0.1293E+03
    -13.746  0.1609E+02  0.1295E+03
    -13.732  0.1604E+02  0.1298E+03
    -13.718  0.1599E+02  0.1300E+03
    -13.704  0.1595E+02  0.1302E+03
    -13.691  0.1590E+02  0.1304E+03
    -13.677  0.1586E+02  0.1306E+03
    -13.663  0.1581E+02  0.1309E+03
    -13.649  0.1575E+02  0.1311E+03
    -13.635  0.1569E+02  0.1313E+03
    -13.621  0.1562E+02  0.1315E+03
    -13.607  0.1555E+02  0.1317E+03
    -13.593  0.1547E+02  0.1319E+03
    -13.579  0.1538E+02  0.1322E+03
    -13.565  0.1530E+02  0.1324E+03
    -13.551  0.1521E+02  0.1326E+03
    -13.537  0.1513E+02  0.1328E+03
    -13.523  0.1507E+02  0.1330E+03
    -13.509  0.1501E+02  0.1332E+03
    -13.495  0.1498E+02  0.1334E+03
    -13.481  0.1497E+02  0.1336E+03
    -13.467  0.1499E+02  0.1338E+03
    -13.453  0.1503E+02  0.1341E+03
    -13.439  0.1511E+02  0.1343E+03
    -13.425  0.1523E+02  0.1345E+03
    -13.412  0.1537E+02  0.1347E+03
    -13.398  0.1555E+02  0.1349E+03
    -13.384  0.1576E+02  0.1351E+03
    -13.370  0.1599E+02  0.1354E+03
    -13.356  0.1624E+02  0.1356E+03
    -13.342  0.1650E+02  0.1358E+03
    -13.328  0.1676E+02  0.1360E+03
    -13.314  0.1703E+02  0.1363E+03
    -13.300  0.1728E+02  0.1365E+03
    -13.286  0.1752E+02  0.1368E+03
    -13.272  0.1774E+02  0.1370E+03
    -13.258  0.1793E+02  0.1373E+03
    -13.244  0.1809E+02  0.1375E+03
    -13.230  0.1821E+02  0.1378E+03
    -13.216  0.1830E+02  0.1380E+03
    -13.202  0.1834E+02  0.1383E+03
    -13.188  0.1835E+02  0.1385E+03
    -13.174  0.1832E+02  0.1388E+03
    -13.160  0.1825E+02  0.1390E+03
    -13.146  0.1815E+02  0.1393E+03
    -13.133  0.1803E+02  0.1396E+03
    -13.119  0.1789E+02  0.1398E+03
    -13.105  0.1773E+02  0.1401E+03
    -13.091  0.1757E+02  0.1403E+03
    -13.077  0.1740E+02  0.1405E+03
    -13.063  0.1723E+02  0.1408E+03
    -13.049  0.1707E+02  0.1410E+03
    -13.035  0.1692E+02  0.1413E+03
    -13.021  0.1678E+02  0.1415E+03
    -13.007  0.1666E+02  0.1417E+03
    -12.993  0.1656E+02  0.1419E+03
    -12.979  0.1648E+02  0.1422E+03
    -12.965  0.1643E+02  0.1424E+03
    -12.951  0.1639E+02  0.1426E+03
    -12.937  0.1638E+02  0.1429E+03
    -12.923  0.1639E+02  0.1431E+03
    -12.909  0.1641E+02  0.1433E+03
    -12.895  0.1645E+02  0.1436E+03
    -12.881  0.1650E+02  0.1438E+03
    -12.868  0.1656E+02  0.1440E+03
    -12.854  0.1662E+02  0.1442E+03
    -12.840  0.1668E+02  0.1445E+03
    -12.826  0.1675E+02  0.1447E+03
    -12.812  0.1681E+02  0.1449E+03
    -12.798  0.1686E+02  0.1452E+03