 139 139   0   0
  0.4987410E+02  0.2070838E-08  0.1673839E-08  0.2000000E-08  0.5000000E-15
  1.000000000000000E-004
  CAR 
 unknown system                          
      3.75779936    -24.09798690 2000     -3.33591681      1.00000000
    -24.098  0.0000E+00  0.0000E+00
    -24.084  0.0000E+00  0.0000E+00
    -24.070  0.0000E+00  0.0000E+00
    -24.056  0.0000E+00  0.0000E+00
    -24.042  0.0000E+00  0.0000E+00
    -24.028  0.0000E+00  0.0000E+00
    -24.014  0.0000E+00  0.0000E+00
    -24.000  0.0000E+00  0.0000E+00
    -23.987  0.0000E+00  0.0000E+00
    -23.973  0.0000E+00  0.0000E+00
    -23.959  0.0000E+00  0.0000E+00
    -23.945  0.0000E+00  0.0000E+00
    -23.931  0.0000E+00  0.0000E+00
    -23.917  0.0000E+00  0.0000E+00
    -23.903  0.0000E+00  0.0000E+00
    -23.889  0.0000E+00  0.0000E+00
    -23.875  0.0000E+00  0.0000E+00
    -23.861  0.0000E+00  0.0000E+00
    -23.847  0.0000E+00  0.0000E+00
    -23.833  0.0000E+00  0.0000E+00
    -23.819  0.0000E+00  0.0000E+00
    -23.805  0.0000E+00  0.0000E+00
    -23.791  0.0000E+00  0.0000E+00
    -23.777  0.0000E+00  0.0000E+00
    -23.764  0.0000E+00  0.0000E+00
    -23.750  0.0000E+00  0.0000E+00
    -23.736  0.0000E+00  0.0000E+00
    -23.722  0.0000E+00  0.0000E+00
    -23.708  0.0000E+00  0.0000E+00
    -23.694  0.0000E+00  0.0000E+00
    -23.680  0.0000E+00  0.0000E+00
    -23.666  0.0000E+00  0.0000E+00
    -23.652  0.0000E+00  0.0000E+00
    -23.638  0.0000E+00  0.0000E+00
    -23.624  0.0000E+00  0.0000E+00
    -23.610  0.0000E+00  0.0000E+00
    -23.596  0.0000E+00  0.0000E+00
    -23.582  0.0000E+00  0.0000E+00
    -23.568  0.0000E+00  0.0000E+00
    -23.555  0.0000E+00  0.0000E+00
    -23.541  0.0000E+00  0.0000E+00
    -23.527  0.0000E+00  0.0000E+00
    -23.513  0.0000E+00  0.0000E+00
    -23.499  0.0000E+00  0.0000E+00
    -23.485  0.0000E+00  0.0000E+00
    -23.471  0.0000E+00  0.0000E+00
    -23.457  0.0000E+00  0.0000E+00
    -23.443  0.0000E+00  0.0000E+00
    -23.429  0.0000E+00  0.0000E+00
    -23.415  0.0000E+00  0.0000E+00
    -23.401  0.0000E+00  0.0000E+00
    -23.387  0.0000E+00  0.0000E+00
    -23.373  0.0000E+00  0.0000E+00
    -23.359  0.0000E+00  0.0000E+00
    -23.346  0.0000E+00  0.0000E+00
    -23.332  0.0000E+00  0.0000E+00
    -23.318  0.0000E+00  0.0000E+00
    -23.304  0.0000E+00  0.0000E+00
    -23.290  0.0000E+00  0.0000E+00
    -23.276  0.2656E-14  0.3701E-16
    -23.262  0.7967E-14  0.1480E-15
    -23.248  0.7082E-14  0.2467E-15
    -23.234  0.2036E-13  0.5304E-15
    -23.220  0.5134E-13  0.1246E-14
    -23.206  0.1107E-12  0.2788E-14
    -23.192  0.2364E-12  0.6082E-14
    -23.178  0.5081E-12  0.1316E-13
    -23.164  0.1086E-11  0.2830E-13
    -23.150  0.2294E-11  0.6026E-13
    -23.136  0.4798E-11  0.1271E-12
    -23.123  0.9945E-11  0.2657E-12
    -23.109  0.2040E-10  0.5500E-12
    -23.095  0.4146E-10  0.1128E-11
    -23.081  0.8343E-10  0.2290E-11
    -23.067  0.1663E-09  0.4607E-11
    -23.053  0.3282E-09  0.9181E-11
    -23.039  0.6416E-09  0.1812E-10
    -23.025  0.1242E-08  0.3543E-10
    -23.011  0.2382E-08  0.6862E-10
    -22.997  0.4523E-08  0.1317E-09
    -22.983  0.8507E-08  0.2502E-09
    -22.969  0.1585E-07  0.4710E-09
    -22.955  0.2923E-07  0.8783E-09
    -22.941  0.5340E-07  0.1622E-08
    -22.927  0.9663E-07  0.2969E-08
    -22.914  0.1732E-06  0.5382E-08
    -22.900  0.3073E-06  0.9664E-08
    -22.886  0.5401E-06  0.1719E-07
    -22.872  0.9402E-06  0.3029E-07
    -22.858  0.1621E-05  0.5288E-07
    -22.844  0.2768E-05  0.9145E-07
    -22.830  0.4680E-05  0.1567E-06
    -22.816  0.7838E-05  0.2659E-06
    -22.802  0.1300E-04  0.4471E-06
    -22.788  0.2136E-04  0.7447E-06
    -22.774  0.3475E-04  0.1229E-05
    -22.760  0.5599E-04  0.2009E-05
    -22.746  0.8935E-04  0.3254E-05
    -22.732  0.1412E-03  0.5222E-05
    -22.718  0.2210E-03  0.8302E-05
    -22.705  0.3427E-03  0.1308E-04
    -22.691  0.5261E-03  0.2041E-04
    -22.677  0.8001E-03  0.3156E-04
    -22.663  0.1205E-02  0.4835E-04
    -22.649  0.1797E-02  0.7340E-04
    -22.635  0.2655E-02  0.1104E-03
    -22.621  0.3886E-02  0.1645E-03
    -22.607  0.5631E-02  0.2430E-03
    -22.593  0.8083E-02  0.3556E-03
    -22.579  0.1149E-01  0.5158E-03
    -22.565  0.1618E-01  0.7412E-03
    -22.551  0.2257E-01  0.1056E-02
    -22.537  0.3117E-01  0.1490E-02
    -22.523  0.4265E-01  0.2084E-02
    -22.509  0.5781E-01  0.2890E-02
    -22.495  0.7761E-01  0.3971E-02
    -22.482  0.1032E+00  0.5410E-02
    -22.468  0.1359E+00  0.7304E-02
    -22.454  0.1774E+00  0.9776E-02
    -22.440  0.2293E+00  0.1297E-01
    -22.426  0.2936E+00  0.1706E-01
    -22.412  0.3725E+00  0.2225E-01
    -22.398  0.4682E+00  0.2878E-01
    -22.384  0.5831E+00  0.3690E-01
    -22.370  0.7196E+00  0.4693E-01
    -22.356  0.8799E+00  0.5919E-01
    -22.342  0.1066E+01  0.7405E-01
    -22.328  0.1281E+01  0.9190E-01
    -22.314  0.1524E+01  0.1131E+00
    -22.300  0.1799E+01  0.1382E+00
    -22.286  0.2104E+01  0.1675E+00
    -22.273  0.2441E+01  0.2015E+00
    -22.259  0.2807E+01  0.2407E+00
    -22.245  0.3203E+01  0.2853E+00
    -22.231  0.3625E+01  0.3358E+00
    -22.217  0.4071E+01  0.3925E+00
    -22.203  0.4537E+01  0.4557E+00
    -22.189  0.5019E+01  0.5257E+00
    -22.175  0.5514E+01  0.6025E+00
    -22.161  0.6017E+01  0.6864E+00
    -22.147  0.6523E+01  0.7773E+00
    -22.133  0.7029E+01  0.8752E+00
    -22.119  0.7531E+01  0.9802E+00
    -22.105  0.8025E+01  0.1092E+01
    -22.091  0.8508E+01  0.1211E+01
    -22.077  0.8978E+01  0.1336E+01
    -22.063  0.9434E+01  0.1467E+01
    -22.050  0.9873E+01  0.1605E+01
    -22.036  0.1030E+02  0.1748E+01
    -22.022  0.1070E+02  0.1897E+01
    -22.008  0.1109E+02  0.2052E+01
    -21.994  0.1145E+02  0.2211E+01
    -21.980  0.1180E+02  0.2376E+01
    -21.966  0.1213E+02  0.2545E+01
    -21.952  0.1244E+02  0.2718E+01
    -21.938  0.1273E+02  0.2896E+01
    -21.924  0.1300E+02  0.3077E+01
    -21.910  0.1324E+02  0.3261E+01
    -21.896  0.1346E+02  0.3449E+01
    -21.882  0.1366E+02  0.3639E+01
    -21.868  0.1383E+02  0.3832E+01
    -21.854  0.1398E+02  0.4027E+01
    -21.841  0.1411E+02  0.4223E+01
    -21.827  0.1421E+02  0.4421E+01
    -21.813  0.1429E+02  0.4621E+01
    -21.799  0.1436E+02  0.4821E+01
    -21.785  0.1442E+02  0.5022E+01
    -21.771  0.1447E+02  0.5223E+01
    -21.757  0.1451E+02  0.5426E+01
    -21.743  0.1456E+02  0.5629E+01
    -21.729  0.1461E+02  0.5832E+01
    -21.715  0.1467E+02  0.6036E+01
    -21.701  0.1473E+02  0.6242E+01
    -21.687  0.1482E+02  0.6448E+01
    -21.673  0.1491E+02  0.6656E+01
    -21.659  0.1503E+02  0.6865E+01
    -21.645  0.1515E+02  0.7077E+01
    -21.632  0.1530E+02  0.7290E+01
    -21.618  0.1546E+02  0.7505E+01
    -21.604  0.1563E+02  0.7723E+01
    -21.590  0.1581E+02  0.7943E+01
    -21.576  0.1600E+02  0.8166E+01
    -21.562  0.1619E+02  0.8392E+01
    -21.548  0.1638E+02  0.8620E+01
    -21.534  0.1657E+02  0.8851E+01
    -21.520  0.1675E+02  0.9084E+01
    -21.506  0.1694E+02  0.9320E+01
    -21.492  0.1711E+02  0.9559E+01
    -21.478  0.1728E+02  0.9800E+01
    -21.464  0.1745E+02  0.1004E+02
    -21.450  0.1760E+02  0.1029E+02
    -21.436  0.1775E+02  0.1054E+02
    -21.422  0.1790E+02  0.1078E+02
    -21.409  0.1805E+02  0.1104E+02
    -21.395  0.1819E+02  0.1129E+02
    -21.381  0.1834E+02  0.1155E+02
    -21.367  0.1848E+02  0.1180E+02
    -21.353  0.1864E+02  0.1206E+02
    -21.339  0.1879E+02  0.1232E+02
    -21.325  0.1896E+02  0.1259E+02
    -21.311  0.1913E+02  0.1286E+02
    -21.297  0.1931E+02  0.1312E+02
    -21.283  0.1949E+02  0.1340E+02
    -21.269  0.1968E+02  0.1367E+02
    -21.255  0.1988E+02  0.1395E+02
    -21.241  0.2007E+02  0.1423E+02
    -21.227  0.2027E+02  0.1451E+02
    -21.213  0.2046E+02  0.1479E+02
    -21.200  0.2065E+02  0.1508E+02
    -21.186  0.2082E+02  0.1537E+02
    -21.172  0.2098E+02  0.1566E+02
    -21.158  0.2113E+02  0.1596E+02
    -21.144  0.2125E+02  0.1626E+02
    -21.130  0.2136E+02  0.1655E+02
    -21.116  0.2143E+02  0.1685E+02
    -21.102  0.2148E+02  0.1715E+02
    -21.088  0.2151E+02  0.1745E+02
    -21.074  0.2151E+02  0.1775E+02
    -21.060  0.2148E+02  0.1805E+02
    -21.046  0.2142E+02  0.1835E+02
    -21.032  0.2135E+02  0.1865E+02
    -21.018  0.2126E+02  0.1894E+02
    -21.004  0.2115E+02  0.1924E+02
    -20.991  0.2104E+02  0.1953E+02
    -20.977  0.2092E+02  0.1982E+02
    -20.963  0.2079E+02  0.2011E+02
    -20.949  0.2068E+02  0.2040E+02
    -20.935  0.2057E+02  0.2069E+02
    -20.921  0.2048E+02  0.2097E+02
    -20.907  0.2040E+02  0.2126E+02
    -20.893  0.2035E+02  0.2154E+02
    -20.879  0.2032E+02  0.2182E+02
    -20.865  0.2032E+02  0.2211E+02
    -20.851  0.2035E+02  0.2239E+02
    -20.837  0.2041E+02  0.2267E+02
    -20.823  0.2050E+02  0.2296E+02
    -20.809  0.2062E+02  0.2325E+02
    -20.795  0.2077E+02  0.2354E+02
    -20.781  0.2095E+02  0.2383E+02
    -20.768  0.2115E+02  0.2412E+02
    -20.754  0.2137E+02  0.2442E+02
    -20.740  0.2161E+02  0.2472E+02
    -20.726  0.2185E+02  0.2503E+02
    -20.712  0.2211E+02  0.2533E+02
    -20.698  0.2237E+02  0.2565E+02
    -20.684  0.2262E+02  0.2596E+02
    -20.670  0.2286E+02  0.2628E+02
    -20.656  0.2309E+02  0.2660E+02
    -20.642  0.2330E+02  0.2693E+02
    -20.628  0.2349E+02  0.2725E+02
    -20.614  0.2365E+02  0.2758E+02
    -20.600  0.2378E+02  0.2791E+02
    -20.586  0.2388E+02  0.2825E+02
    -20.572  0.2395E+02  0.2858E+02
    -20.559  0.2398E+02  0.2891E+02
    -20.545  0.2398E+02  0.2925E+02
    -20.531  0.2395E+02  0.2958E+02
    -20.517  0.2389E+02  0.2992E+02
    -20.503  0.2379E+02  0.3025E+02
    -20.489  0.2367E+02  0.3058E+02
    -20.475  0.2352E+02  0.3090E+02
    -20.461  0.2335E+02  0.3123E+02
    -20.447  0.2316E+02  0.3155E+02
    -20.433  0.2294E+02  0.3187E+02
    -20.419  0.2272E+02  0.3219E+02
    -20.405  0.2247E+02  0.3250E+02
    -20.391  0.2222E+02  0.3281E+02
    -20.377  0.2196E+02  0.3312E+02
    -20.363  0.2170E+02  0.3342E+02
    -20.350  0.2144E+02  0.3372E+02
    -20.336  0.2118E+02  0.3401E+02
    -20.322  0.2093E+02  0.3431E+02
    -20.308  0.2069E+02  0.3459E+02
    -20.294  0.2047E+02  0.3488E+02
    -20.280  0.2027E+02  0.3516E+02
    -20.266  0.2009E+02  0.3544E+02
    -20.252  0.1994E+02  0.3572E+02
    -20.238  0.1982E+02  0.3600E+02
    -20.224  0.1973E+02  0.3627E+02
    -20.210  0.1968E+02  0.3654E+02
    -20.196  0.1966E+02  0.3682E+02
    -20.182  0.1968E+02  0.3709E+02
    -20.168  0.1974E+02  0.3737E+02
    -20.154  0.1983E+02  0.3764E+02
    -20.140  0.1995E+02  0.3792E+02
    -20.127  0.2010E+02  0.3820E+02
    -20.113  0.2028E+02  0.3849E+02
    -20.099  0.2049E+02  0.3877E+02
    -20.085  0.2071E+02  0.3906E+02
    -20.071  0.2095E+02  0.3935E+02
    -20.057  0.2120E+02  0.3965E+02
    -20.043  0.2145E+02  0.3995E+02
    -20.029  0.2171E+02  0.4025E+02
    -20.015  0.2196E+02  0.4055E+02
    -20.001  0.2221E+02  0.4086E+02
    -19.987  0.2244E+02  0.4118E+02
    -19.973  0.2266E+02  0.4149E+02
    -19.959  0.2287E+02  0.4181E+02
    -19.945  0.2305E+02  0.4213E+02
    -19.931  0.2321E+02  0.4246E+02
    -19.918  0.2335E+02  0.4278E+02
    -19.904  0.2346E+02  0.4311E+02
    -19.890  0.2355E+02  0.4344E+02
    -19.876  0.2361E+02  0.4377E+02
    -19.862  0.2365E+02  0.4409E+02
    -19.848  0.2366E+02  0.4442E+02
    -19.834  0.2364E+02  0.4475E+02
    -19.820  0.2360E+02  0.4508E+02
    -19.806  0.2354E+02  0.4541E+02
    -19.792  0.2346E+02  0.4574E+02
    -19.778  0.2336E+02  0.4606E+02
    -19.764  0.2324E+02  0.4639E+02
    -19.750  0.2311E+02  0.4671E+02
    -19.736  0.2297E+02  0.4703E+02
    -19.722  0.2281E+02  0.4735E+02
    -19.709  0.2264E+02  0.4766E+02
    -19.695  0.2247E+02  0.4798E+02
    -19.681  0.2229E+02  0.4829E+02
    -19.667  0.2210E+02  0.4859E+02
    -19.653  0.2191E+02  0.4890E+02
    -19.639  0.2173E+02  0.4920E+02
    -19.625  0.2155E+02  0.4950E+02
    -19.611  0.2137E+02  0.4980E+02
    -19.597  0.2121E+02  0.5010E+02
    -19.583  0.2106E+02  0.5039E+02
    -19.569  0.2092E+02  0.5068E+02
    -19.555  0.2081E+02  0.5097E+02
    -19.541  0.2071E+02  0.5126E+02
    -19.527  0.2064E+02  0.5155E+02
    -19.513  0.2060E+02  0.5183E+02
    -19.499  0.2059E+02  0.5212E+02
    -19.486  0.2061E+02  0.5241E+02
    -19.472  0.2066E+02  0.5270E+02
    -19.458  0.2074E+02  0.5299E+02
    -19.444  0.2085E+02  0.5328E+02
    -19.430  0.2098E+02  0.5357E+02
    -19.416  0.2114E+02  0.5386E+02
    -19.402  0.2132E+02  0.5416E+02
    -19.388  0.2152E+02  0.5446E+02
    -19.374  0.2173E+02  0.5476E+02
    -19.360  0.2195E+02  0.5507E+02
    -19.346  0.2218E+02  0.5538E+02
    -19.332  0.2240E+02  0.5569E+02
    -19.318  0.2263E+02  0.5600E+02
    -19.304  0.2285E+02  0.5632E+02
    -19.290  0.2305E+02  0.5664E+02
    -19.277  0.2325E+02  0.5697E+02
    -19.263  0.2342E+02  0.5729E+02
    -19.249  0.2358E+02  0.5762E+02
    -19.235  0.2371E+02  0.5795E+02
    -19.221  0.2383E+02  0.5829E+02
    -19.207  0.2391E+02  0.5862E+02
    -19.193  0.2397E+02  0.5895E+02
    -19.179  0.2401E+02  0.5929E+02
    -19.165  0.2402E+02  0.5962E+02
    -19.151  0.2401E+02  0.5996E+02
    -19.137  0.2397E+02  0.6029E+02
    -19.123  0.2391E+02  0.6062E+02
    -19.109  0.2383E+02  0.6096E+02
    -19.095  0.2374E+02  0.6129E+02
    -19.081  0.2364E+02  0.6162E+02
    -19.068  0.2353E+02  0.6194E+02
    -19.054  0.2342E+02  0.6227E+02
    -19.040  0.2330E+02  0.6260E+02
    -19.026  0.2320E+02  0.6292E+02
    -19.012  0.2310E+02  0.6324E+02
    -18.998  0.2302E+02  0.6356E+02
    -18.984  0.2296E+02  0.6388E+02
    -18.970  0.2292E+02  0.6420E+02
    -18.956  0.2290E+02  0.6452E+02
    -18.942  0.2290E+02  0.6484E+02
    -18.928  0.2292E+02  0.6516E+02
    -18.914  0.2296E+02  0.6548E+02
    -18.900  0.2302E+02  0.6580E+02
    -18.886  0.2310E+02  0.6612E+02
    -18.872  0.2319E+02  0.6644E+02
    -18.858  0.2329E+02  0.6677E+02
    -18.845  0.2339E+02  0.6709E+02
    -18.831  0.2349E+02  0.6742E+02
    -18.817  0.2358E+02  0.6775E+02
    -18.803  0.2366E+02  0.6808E+02
    -18.789  0.2373E+02  0.6841E+02
    -18.775  0.2379E+02  0.6874E+02
    -18.761  0.2383E+02  0.6907E+02
    -18.747  0.2385E+02  0.6941E+02
    -18.733  0.2385E+02  0.6974E+02
    -18.719  0.2383E+02  0.7007E+02
    -18.705  0.2379E+02  0.7040E+02
    -18.691  0.2374E+02  0.7073E+02
    -18.677  0.2368E+02  0.7106E+02
    -18.663  0.2361E+02  0.7139E+02
    -18.649  0.2353E+02  0.7172E+02
    -18.636  0.2345E+02  0.7205E+02
    -18.622  0.2337E+02  0.7237E+02
    -18.608  0.2329E+02  0.7270E+02
    -18.594  0.2321E+02  0.7302E+02
    -18.580  0.2314E+02  0.7334E+02
    -18.566  0.2308E+02  0.7366E+02
    -18.552  0.2303E+02  0.7399E+02
    -18.538  0.2298E+02  0.7431E+02
    -18.524  0.2295E+02  0.7463E+02
    -18.510  0.2292E+02  0.7495E+02
    -18.496  0.2291E+02  0.7526E+02
    -18.482  0.2290E+02  0.7558E+02
    -18.468  0.2291E+02  0.7590E+02
    -18.454  0.2292E+02  0.7622E+02
    -18.440  0.2295E+02  0.7654E+02
    -18.426  0.2298E+02  0.7686E+02
    -18.413  0.2303E+02  0.7718E+02
    -18.399  0.2309E+02  0.7750E+02
    -18.385  0.2316E+02  0.7783E+02
    -18.371  0.2324E+02  0.7815E+02
    -18.357  0.2334E+02  0.7848E+02
    -18.343  0.2344E+02  0.7880E+02
    -18.329  0.2355E+02  0.7913E+02
    -18.315  0.2367E+02  0.7946E+02
    -18.301  0.2380E+02  0.7979E+02
    -18.287  0.2393E+02  0.8013E+02
    -18.273  0.2406E+02  0.8046E+02
    -18.259  0.2418E+02  0.8080E+02
    -18.245  0.2431E+02  0.8114E+02
    -18.231  0.2442E+02  0.8148E+02
    -18.217  0.2453E+02  0.8182E+02
    -18.204  0.2463E+02  0.8216E+02
    -18.190  0.2471E+02  0.8251E+02
    -18.176  0.2478E+02  0.8285E+02
    -18.162  0.2483E+02  0.8320E+02
    -18.148  0.2487E+02  0.8354E+02
    -18.134  0.2489E+02  0.8389E+02
    -18.120  0.2491E+02  0.8424E+02
    -18.106  0.2490E+02  0.8459E+02
    -18.092  0.2489E+02  0.8493E+02
    -18.078  0.2487E+02  0.8528E+02
    -18.064  0.2484E+02  0.8563E+02
    -18.050  0.2481E+02  0.8597E+02
    -18.036  0.2477E+02  0.8632E+02
    -18.022  0.2473E+02  0.8666E+02
    -18.008  0.2469E+02  0.8700E+02
    -17.995  0.2465E+02  0.8735E+02
    -17.981  0.2461E+02  0.8769E+02
    -17.967  0.2458E+02  0.8803E+02
    -17.953  0.2455E+02  0.8838E+02
    -17.939  0.2452E+02  0.8872E+02
    -17.925  0.2450E+02  0.8906E+02
    -17.911  0.2449E+02  0.8940E+02
    -17.897  0.2448E+02  0.8974E+02
    -17.883  0.2447E+02  0.9008E+02
    -17.869  0.2447E+02  0.9042E+02
    -17.855  0.2448E+02  0.9076E+02
    -17.841  0.2449E+02  0.9111E+02
    -17.827  0.2450E+02  0.9145E+02
    -17.813  0.2453E+02  0.9179E+02
    -17.799  0.2456E+02  0.9213E+02
    -17.785  0.2459E+02  0.9247E+02
    -17.772  0.2464E+02  0.9282E+02
    -17.758  0.2469E+02  0.9316E+02
    -17.744  0.2475E+02  0.9351E+02
    -17.730  0.2481E+02  0.9385E+02
    -17.716  0.2489E+02  0.9420E+02
    -17.702  0.2497E+02  0.9455E+02
    -17.688  0.2506E+02  0.9490E+02
    -17.674  0.2515E+02  0.9525E+02
    -17.660  0.2525E+02  0.9560E+02
    -17.646  0.2535E+02  0.9595E+02
    -17.632  0.2545E+02  0.9631E+02
    -17.618  0.2554E+02  0.9666E+02
    -17.604  0.2564E+02  0.9702E+02
    -17.590  0.2572E+02  0.9738E+02
    -17.576  0.2580E+02  0.9774E+02
    -17.563  0.2586E+02  0.9810E+02
    -17.549  0.2590E+02  0.9846E+02
    -17.535  0.2593E+02  0.9882E+02
    -17.521  0.2593E+02  0.9918E+02
    -17.507  0.2591E+02  0.9954E+02
    -17.493  0.2587E+02  0.9990E+02
    -17.479  0.2581E+02  0.1003E+03
    -17.465  0.2572E+02  0.1006E+03
    -17.451  0.2562E+02  0.1010E+03
    -17.437  0.2549E+02  0.1013E+03
    -17.423  0.2534E+02  0.1017E+03
    -17.409  0.2518E+02  0.1020E+03
    -17.395  0.2501E+02  0.1024E+03
    -17.381  0.2482E+02  0.1027E+03
    -17.367  0.2464E+02  0.1031E+03
    -17.354  0.2445E+02  0.1034E+03
    -17.340  0.2426E+02  0.1038E+03
    -17.326  0.2408E+02  0.1041E+03
    -17.312  0.2391E+02  0.1044E+03
    -17.298  0.2375E+02  0.1048E+03
    -17.284  0.2361E+02  0.1051E+03
    -17.270  0.2348E+02  0.1054E+03
    -17.256  0.2336E+02  0.1057E+03
    -17.242  0.2327E+02  0.1061E+03
    -17.228  0.2318E+02  0.1064E+03
    -17.214  0.2312E+02  0.1067E+03
    -17.200  0.2307E+02  0.1070E+03
    -17.186  0.2304E+02  0.1073E+03
    -17.172  0.2302E+02  0.1077E+03
    -17.158  0.2301E+02  0.1080E+03
    -17.144  0.2301E+02  0.1083E+03
    -17.131  0.2302E+02  0.1086E+03
    -17.117  0.2304E+02  0.1089E+03
    -17.103  0.2307E+02  0.1093E+03
    -17.089  0.2311E+02  0.1096E+03
    -17.075  0.2315E+02  0.1099E+03
    -17.061  0.2320E+02  0.1102E+03
    -17.047  0.2326E+02  0.1106E+03
    -17.033  0.2333E+02  0.1109E+03
    -17.019  0.2340E+02  0.1112E+03
    -17.005  0.2348E+02  0.1115E+03
    -16.991  0.2357E+02  0.1119E+03
    -16.977  0.2366E+02  0.1122E+03
    -16.963  0.2376E+02  0.1125E+03
    -16.949  0.2387E+02  0.1129E+03
    -16.935  0.2397E+02  0.1132E+03
    -16.922  0.2408E+02  0.1135E+03
    -16.908  0.2420E+02  0.1139E+03
    -16.894  0.2431E+02  0.1142E+03
    -16.880  0.2442E+02  0.1145E+03
    -16.866  0.2452E+02  0.1149E+03
    -16.852  0.2463E+02  0.1152E+03
    -16.838  0.2472E+02  0.1156E+03
    -16.824  0.2481E+02  0.1159E+03
    -16.810  0.2488E+02  0.1163E+03
    -16.796  0.2494E+02  0.1166E+03
    -16.782  0.2498E+02  0.1170E+03
    -16.768  0.2500E+02  0.1173E+03
    -16.754  0.2501E+02  0.1177E+03
    -16.740  0.2499E+02  0.1180E+03
    -16.726  0.2496E+02  0.1184E+03
    -16.713  0.2489E+02  0.1187E+03
    -16.699  0.2481E+02  0.1191E+03
    -16.685  0.2470E+02  0.1194E+03
    -16.671  0.2458E+02  0.1197E+03
    -16.657  0.2443E+02  0.1201E+03
    -16.643  0.2426E+02  0.1204E+03
    -16.629  0.2407E+02  0.1208E+03
    -16.615  0.2387E+02  0.1211E+03
    -16.601  0.2366E+02  0.1214E+03
    -16.587  0.2343E+02  0.1217E+03
    -16.573  0.2319E+02  0.1221E+03
    -16.559  0.2295E+02  0.1224E+03
    -16.545  0.2269E+02  0.1227E+03
    -16.531  0.2244E+02  0.1230E+03
    -16.517  0.2217E+02  0.1233E+03
    -16.503  0.2190E+02  0.1236E+03
    -16.490  0.2163E+02  0.1239E+03
    -16.476  0.2136E+02  0.1242E+03
    -16.462  0.2109E+02  0.1245E+03
    -16.448  0.2082E+02  0.1248E+03
    -16.434  0.2055E+02  0.1251E+03
    -16.420  0.2029E+02  0.1254E+03
    -16.406  0.2005E+02  0.1257E+03
    -16.392  0.1981E+02  0.1259E+03
    -16.378  0.1960E+02  0.1262E+03
    -16.364  0.1941E+02  0.1265E+03
    -16.350  0.1925E+02  0.1267E+03
    -16.336  0.1911E+02  0.1270E+03
    -16.322  0.1902E+02  0.1273E+03
    -16.308  0.1896E+02  0.1275E+03
    -16.294  0.1894E+02  0.1278E+03
    -16.281  0.1896E+02  0.1281E+03
    -16.267  0.1902E+02  0.1283E+03
    -16.253  0.1911E+02  0.1286E+03
    -16.239  0.1925E+02  0.1289E+03
    -16.225  0.1941E+02  0.1291E+03
    -16.211  0.1961E+02  0.1294E+03
    -16.197  0.1983E+02  0.1297E+03
    -16.183  0.2006E+02  0.1300E+03
    -16.169  0.2030E+02  0.1303E+03
    -16.155  0.2054E+02  0.1305E+03
    -16.141  0.2078E+02  0.1308E+03
    -16.127  0.2101E+02  0.1311E+03
    -16.113  0.2123E+02  0.1314E+03
    -16.099  0.2142E+02  0.1317E+03
    -16.085  0.2158E+02  0.1320E+03
    -16.072  0.2171E+02  0.1323E+03
    -16.058  0.2181E+02  0.1326E+03
    -16.044  0.2188E+02  0.1329E+03
    -16.030  0.2191E+02  0.1332E+03
    -16.016  0.2191E+02  0.1335E+03
    -16.002  0.2187E+02  0.1338E+03
    -15.988  0.2180E+02  0.1341E+03
    -15.974  0.2171E+02  0.1344E+03
    -15.960  0.2159E+02  0.1348E+03
    -15.946  0.2146E+02  0.1350E+03
    -15.932  0.2130E+02  0.1353E+03
    -15.918  0.2114E+02  0.1356E+03
    -15.904  0.2097E+02  0.1359E+03
    -15.890  0.2080E+02  0.1362E+03
    -15.876  0.2063E+02  0.1365E+03
    -15.862  0.2046E+02  0.1368E+03
    -15.849  0.2029E+02  0.1371E+03
    -15.835  0.2014E+02  0.1374E+03
    -15.821  0.1998E+02  0.1376E+03
    -15.807  0.1984E+02  0.1379E+03
    -15.793  0.1970E+02  0.1382E+03
    -15.779  0.1957E+02  0.1385E+03
    -15.765  0.1945E+02  0.1387E+03
    -15.751  0.1933E+02  0.1390E+03
    -15.737  0.1923E+02  0.1393E+03
    -15.723  0.1912E+02  0.1395E+03
    -15.709  0.1903E+02  0.1398E+03
    -15.695  0.1894E+02  0.1401E+03
    -15.681  0.1886E+02  0.1403E+03
    -15.667  0.1880E+02  0.1406E+03
    -15.653  0.1874E+02  0.1409E+03
    -15.640  0.1871E+02  0.1411E+03
    -15.626  0.1868E+02  0.1414E+03
    -15.612  0.1868E+02  0.1416E+03
    -15.598  0.1870E+02  0.1419E+03
    -15.584  0.1874E+02  0.1422E+03
    -15.570  0.1880E+02  0.1424E+03
    -15.556  0.1889E+02  0.1427E+03
    -15.542  0.1900E+02  0.1429E+03
    -15.528  0.1914E+02  0.1432E+03
    -15.514  0.1929E+02  0.1435E+03
    -15.500  0.1947E+02  0.1438E+03
    -15.486  0.1967E+02  0.1440E+03
    -15.472  0.1989E+02  0.1443E+03
    -15.458  0.2012E+02  0.1446E+03
    -15.444  0.2037E+02  0.1449E+03
    -15.431  0.2063E+02  0.1452E+03
    -15.417  0.2089E+02  0.1454E+03
    -15.403  0.2117E+02  0.1457E+03
    -15.389  0.2144E+02  0.1460E+03
    -15.375  0.2172E+02  0.1463E+03
    -15.361  0.2199E+02  0.1466E+03
    -15.347  0.2226E+02  0.1470E+03
    -15.333  0.2251E+02  0.1473E+03
    -15.319  0.2276E+02  0.1476E+03
    -15.305  0.2299E+02  0.1479E+03
    -15.291  0.2321E+02  0.1482E+03
    -15.277  0.2340E+02  0.1486E+03
    -15.263  0.2357E+02  0.1489E+03
    -15.249  0.2372E+02  0.1492E+03
    -15.235  0.2385E+02  0.1496E+03
    -15.221  0.2395E+02  0.1499E+03
    -15.208  0.2403E+02  0.1502E+03
    -15.194  0.2409E+02  0.1506E+03
    -15.180  0.2412E+02  0.1509E+03
    -15.166  0.2414E+02  0.1512E+03
    -15.152  0.2414E+02  0.1516E+03
    -15.138  0.2412E+02  0.1519E+03
    -15.124  0.2410E+02  0.1522E+03
    -15.110  0.2407E+02  0.1526E+03
    -15.096  0.2403E+02  0.1529E+03
    -15.082  0.2400E+02  0.1532E+03
    -15.068  0.2396E+02  0.1536E+03
    -15.054  0.2393E+02  0.1539E+03
    -15.040  0.2391E+02  0.1542E+03
    -15.026  0.2389E+02  0.1546E+03
    -15.012  0.2388E+02  0.1549E+03
    -14.999  0.2387E+02  0.1552E+03
    -14.985  0.2387E+02  0.1556E+03
    -14.971  0.2388E+02  0.1559E+03
    -14.957  0.2390E+02  0.1562E+03
    -14.943  0.2393E+02  0.1566E+03
    -14.929  0.2396E+02  0.1569E+03
    -14.915  0.2400E+02  0.1572E+03
    -14.901  0.2404E+02  0.1576E+03
    -14.887  0.2410E+02  0.1579E+03
    -14.873  0.2415E+02  0.1582E+03
    -14.859  0.2422E+02  0.1586E+03
    -14.845  0.2428E+02  0.1589E+03
    -14.831  0.2436E+02  0.1593E+03
    -14.817  0.2443E+02  0.1596E+03
    -14.803  0.2450E+02  0.1599E+03
    -14.790  0.2458E+02  0.1603E+03
    -14.776  0.2464E+02  0.1606E+03
    -14.762  0.2470E+02  0.1610E+03
    -14.748  0.2475E+02  0.1613E+03
    -14.734  0.2478E+02  0.1617E+03
    -14.720  0.2479E+02  0.1620E+03
    -14.706  0.2478E+02  0.1624E+03
    -14.692  0.2474E+02  0.1627E+03
    -14.678  0.2467E+02  0.1630E+03
    -14.664  0.2458E+02  0.1634E+03
    -14.650  0.2446E+02  0.1637E+03
    -14.636  0.2430E+02  0.1641E+03
    -14.622  0.2412E+02  0.1644E+03
    -14.608  0.2392E+02  0.1647E+03
    -14.594  0.2369E+02  0.1651E+03
    -14.580  0.2345E+02  0.1654E+03
    -14.567  0.2321E+02  0.1657E+03
    -14.553  0.2295E+02  0.1660E+03
    -14.539  0.2270E+02  0.1664E+03
    -14.525  0.2246E+02  0.1667E+03
    -14.511  0.2224E+02  0.1670E+03
    -14.497  0.2203E+02  0.1673E+03
    -14.483  0.2185E+02  0.1676E+03
    -14.469  0.2170E+02  0.1679E+03
    -14.455  0.2158E+02  0.1682E+03
    -14.441  0.2150E+02  0.1685E+03
    -14.427  0.2145E+02  0.1688E+03
    -14.413  0.2145E+02  0.1691E+03
    -14.399  0.2148E+02  0.1694E+03
    -14.385  0.2155E+02  0.1697E+03
    -14.371  0.2165E+02  0.1700E+03
    -14.358  0.2179E+02  0.1703E+03
    -14.344  0.2195E+02  0.1706E+03
    -14.330  0.2214E+02  0.1709E+03
    -14.316  0.2236E+02  0.1712E+03
    -14.302  0.2259E+02  0.1715E+03
    -14.288  0.2284E+02  0.1718E+03
    -14.274  0.2309E+02  0.1722E+03
    -14.260  0.2335E+02  0.1725E+03
    -14.246  0.2360E+02  0.1728E+03
    -14.232  0.2385E+02  0.1732E+03
    -14.218  0.2410E+02  0.1735E+03
    -14.204  0.2433E+02  0.1738E+03
    -14.190  0.2454E+02  0.1742E+03
    -14.176  0.2474E+02  0.1745E+03
    -14.162  0.2492E+02  0.1749E+03
    -14.148  0.2507E+02  0.1752E+03
    -14.135  0.2521E+02  0.1756E+03
    -14.121  0.2532E+02  0.1759E+03
    -14.107  0.2542E+02  0.1763E+03
    -14.093  0.2549E+02  0.1766E+03
    -14.079  0.2554E+02  0.1770E+03
    -14.065  0.2557E+02  0.1773E+03
    -14.051  0.2559E+02  0.1777E+03
    -14.037  0.2559E+02  0.1781E+03
    -14.023  0.2558E+02  0.1784E+03
    -14.009  0.2556E+02  0.1788E+03
    -13.995  0.2554E+02  0.1791E+03
    -13.981  0.2550E+02  0.1795E+03
    -13.967  0.2547E+02  0.1798E+03
    -13.953  0.2543E+02  0.1802E+03
    -13.939  0.2538E+02  0.1805E+03
    -13.926  0.2534E+02  0.1809E+03
    -13.912  0.2530E+02  0.1812E+03
    -13.898  0.2525E+02  0.1816E+03
    -13.884  0.2521E+02  0.1820E+03
    -13.870  0.2516E+02  0.1823E+03
    -13.856  0.2511E+02  0.1827E+03
    -13.842  0.2506E+02  0.1830E+03
    -13.828  0.2500E+02  0.1833E+03
    -13.814  0.2493E+02  0.1837E+03
    -13.800  0.2486E+02  0.1840E+03
    -13.786  0.2477E+02  0.1844E+03
    -13.772  0.2467E+02  0.1847E+03
    -13.758  0.2456E+02  0.1851E+03
    -13.744  0.2443E+02  0.1854E+03
    -13.730  0.2428E+02  0.1858E+03
    -13.717  0.2413E+02  0.1861E+03
    -13.703  0.2395E+02  0.1864E+03
    -13.689  0.2377E+02  0.1868E+03
    -13.675  0.2357E+02  0.1871E+03
    -13.661  0.2337E+02  0.1874E+03
    -13.647  0.2317E+02  0.1877E+03
    -13.633  0.2296E+02  0.1881E+03
    -13.619  0.2276E+02  0.1884E+03
    -13.605  0.2257E+02  0.1887E+03
    -13.591  0.2239E+02  0.1890E+03
    -13.577  0.2223E+02  0.1893E+03
    -13.563  0.2209E+02  0.1896E+03
    -13.549  0.2198E+02  0.1899E+03
    -13.535  0.2189E+02  0.1902E+03
    -13.521  0.2183E+02  0.1905E+03
    -13.507  0.2180E+02  0.1908E+03
    -13.494  0.2181E+02  0.1911E+03
    -13.480  0.2184E+02  0.1914E+03
    -13.466  0.2191E+02  0.1917E+03
    -13.452  0.2200E+02  0.1921E+03
    -13.438  0.2212E+02  0.1924E+03
    -13.424  0.2227E+02  0.1927E+03
    -13.410  0.2244E+02  0.1930E+03
    -13.396  0.2263E+02  0.1933E+03
    -13.382  0.2284E+02  0.1936E+03
    -13.368  0.2306E+02  0.1939E+03
    -13.354  0.2328E+02  0.1943E+03
    -13.340  0.2351E+02  0.1946E+03
    -13.326  0.2374E+02  0.1949E+03
    -13.312  0.2397E+02  0.1953E+03
    -13.298  0.2420E+02  0.1956E+03
    -13.285  0.2441E+02  0.1959E+03
    -13.271  0.2461E+02  0.1963E+03
    -13.257  0.2480E+02  0.1966E+03
    -13.243  0.2497E+02  0.1970E+03
    -13.229  0.2513E+02  0.1973E+03
    -13.215  0.2527E+02  0.1977E+03
    -13.201  0.2539E+02  0.1980E+03
    -13.187  0.2549E+02  0.1984E+03
    -13.173  0.2558E+02  0.1987E+03
    -13.159  0.2565E+02  0.1991E+03
    -13.145  0.2570E+02  0.1995E+03
    -13.131  0.2574E+02  0.1998E+03
    -13.117  0.2576E+02  0.2002E+03
    -13.103  0.2577E+02  0.2005E+03
    -13.089  0.2577E+02  0.2009E+03
    -13.076  0.2575E+02  0.2012E+03
    -13.062  0.2571E+02  0.2016E+03
    -13.048  0.2566E+02  0.2020E+03
    -13.034  0.2559E+02  0.2023E+03
    -13.020  0.2551E+02  0.2027E+03
    -13.006  0.2540E+02  0.2030E+03
    -12.992  0.2526E+02  0.2034E+03
    -12.978  0.2511E+02  0.2037E+03
    -12.964  0.2493E+02  0.2041E+03
    -12.950  0.2473E+02  0.2044E+03
    -12.936  0.2450E+02  0.2048E+03
    -12.922  0.2426E+02  0.2051E+03
    -12.908  0.2399E+02  0.2054E+03
    -12.894  0.2371E+02  0.2058E+03
    -12.880  0.2342E+02  0.2061E+03
    -12.866  0.2313E+02  0.2064E+03
    -12.853  0.2283E+02  0.2067E+03
    -12.839  0.2255E+02  0.2070E+03
    -12.825  0.2228E+02  0.2074E+03
    -12.811  0.2204E+02  0.2077E+03
    -12.797  0.2182E+02  0.2080E+03
    -12.783  0.2164E+02  0.2083E+03
    -12.769  0.2150E+02  0.2086E+03
    -12.755  0.2140E+02  0.2089E+03
    -12.741  0.2135E+02  0.2092E+03
    -12.727  0.2136E+02  0.2095E+03
    -12.713  0.2141E+02  0.2098E+03
    -12.699  0.2152E+02  0.2101E+03
    -12.685  0.2168E+02  0.2104E+03
    -12.671  0.2189E+02  0.2107E+03
    -12.657  0.2214E+02  0.2110E+03
    -12.644  0.2243E+02  0.2113E+03
    -12.630  0.2276E+02  0.2116E+03
    -12.616  0.2311E+02  0.2119E+03
    -12.602  0.2349E+02  0.2123E+03