 249 249   0   0
  0.5341382E+02  0.2993089E-08  0.2221792E-08  0.2000000E-08  0.5000000E-15
  1.000000000000000E-004
  CAR 
 unknown system                          
      3.72237292    -24.11667174 2000     -3.49664538      1.00000000
    -24.117  0.0000E+00  0.0000E+00
    -24.103  0.0000E+00  0.0000E+00
    -24.089  0.0000E+00  0.0000E+00
    -24.075  0.0000E+00  0.0000E+00
    -24.061  0.0000E+00  0.0000E+00
    -24.047  0.0000E+00  0.0000E+00
    -24.033  0.0000E+00  0.0000E+00
    -24.019  0.0000E+00  0.0000E+00
    -24.005  0.0000E+00  0.0000E+00
    -23.991  0.0000E+00  0.0000E+00
    -23.977  0.0000E+00  0.0000E+00
    -23.963  0.0000E+00  0.0000E+00
    -23.950  0.0000E+00  0.0000E+00
    -23.936  0.0000E+00  0.0000E+00
    -23.922  0.0000E+00  0.0000E+00
    -23.908  0.0000E+00  0.0000E+00
    -23.894  0.0000E+00  0.0000E+00
    -23.880  0.0000E+00  0.0000E+00
    -23.866  0.0000E+00  0.0000E+00
    -23.852  0.0000E+00  0.0000E+00
    -23.838  0.0000E+00  0.0000E+00
    -23.824  0.0000E+00  0.0000E+00
    -23.810  0.0000E+00  0.0000E+00
    -23.796  0.0000E+00  0.0000E+00
    -23.782  0.0000E+00  0.0000E+00
    -23.769  0.0000E+00  0.0000E+00
    -23.755  0.0000E+00  0.0000E+00
    -23.741  0.0000E+00  0.0000E+00
    -23.727  0.0000E+00  0.0000E+00
    -23.713  0.0000E+00  0.0000E+00
    -23.699  0.0000E+00  0.0000E+00
    -23.685  0.0000E+00  0.0000E+00
    -23.671  0.0000E+00  0.0000E+00
    -23.657  0.0000E+00  0.0000E+00
    -23.643  0.0000E+00  0.0000E+00
    -23.629  0.0000E+00  0.0000E+00
    -23.615  0.0000E+00  0.0000E+00
    -23.601  0.0000E+00  0.0000E+00
    -23.587  0.0000E+00  0.0000E+00
    -23.574  0.0000E+00  0.0000E+00
    -23.560  0.0000E+00  0.0000E+00
    -23.546  0.0000E+00  0.0000E+00
    -23.532  0.0000E+00  0.0000E+00
    -23.518  0.0000E+00  0.0000E+00
    -23.504  0.0000E+00  0.0000E+00
    -23.490  0.0000E+00  0.0000E+00
    -23.476  0.0000E+00  0.0000E+00
    -23.462  0.0000E+00  0.0000E+00
    -23.448  0.0000E+00  0.0000E+00
    -23.434  0.0000E+00  0.0000E+00
    -23.420  0.0000E+00  0.0000E+00
    -23.406  0.0000E+00  0.0000E+00
    -23.392  0.0000E+00  0.0000E+00
    -23.379  0.0000E+00  0.0000E+00
    -23.365  0.0000E+00  0.0000E+00
    -23.351  0.0000E+00  0.0000E+00
    -23.337  0.0000E+00  0.0000E+00
    -23.323  0.0000E+00  0.0000E+00
    -23.309  0.0000E+00  0.0000E+00
    -23.295  0.2657E-14  0.3701E-16
    -23.281  0.6200E-14  0.1234E-15
    -23.267  0.1063E-13  0.2714E-15
    -23.253  0.2834E-13  0.6661E-15
    -23.239  0.6378E-13  0.1554E-14
    -23.225  0.1382E-12  0.3479E-14
    -23.211  0.2985E-12  0.7636E-14
    -23.198  0.6386E-12  0.1653E-13
    -23.184  0.1372E-11  0.3564E-13
    -23.170  0.2887E-11  0.7584E-13
    -23.156  0.6041E-11  0.1600E-12
    -23.142  0.1253E-10  0.3345E-12
    -23.128  0.2572E-10  0.6927E-12
    -23.114  0.5229E-10  0.1421E-11
    -23.100  0.1053E-09  0.2888E-11
    -23.086  0.2101E-09  0.5813E-11
    -23.072  0.4150E-09  0.1159E-10
    -23.058  0.8121E-09  0.2290E-10
    -23.044  0.1574E-08  0.4482E-10
    -23.030  0.3021E-08  0.8690E-10
    -23.016  0.5745E-08  0.1669E-09
    -23.003  0.1082E-07  0.3176E-09
    -22.989  0.2019E-07  0.5987E-09
    -22.975  0.3730E-07  0.1118E-08
    -22.961  0.6827E-07  0.2069E-08
    -22.947  0.1238E-06  0.3792E-08
    -22.933  0.2222E-06  0.6887E-08
    -22.919  0.3953E-06  0.1239E-07
    -22.905  0.6965E-06  0.2209E-07
    -22.891  0.1216E-05  0.3902E-07
    -22.877  0.2102E-05  0.6829E-07
    -22.863  0.3599E-05  0.1184E-06
    -22.849  0.6105E-05  0.2034E-06
    -22.835  0.1026E-04  0.3463E-06
    -22.822  0.1708E-04  0.5841E-06
    -22.808  0.2816E-04  0.9763E-06
    -22.794  0.4600E-04  0.1617E-05
    -22.780  0.7443E-04  0.2653E-05
    -22.766  0.1193E-03  0.4315E-05
    -22.752  0.1895E-03  0.6954E-05
    -22.738  0.2981E-03  0.1111E-04
    -22.724  0.4646E-03  0.1758E-04
    -22.710  0.7174E-03  0.2757E-04
    -22.696  0.1097E-02  0.4285E-04
    -22.682  0.1663E-02  0.6601E-04
    -22.668  0.2497E-02  0.1008E-03
    -22.654  0.3715E-02  0.1525E-03
    -22.640  0.5476E-02  0.2288E-03
    -22.627  0.7997E-02  0.3401E-03
    -22.613  0.1157E-01  0.5013E-03
    -22.599  0.1659E-01  0.7323E-03
    -22.585  0.2357E-01  0.1061E-02
    -22.571  0.3318E-01  0.1523E-02
    -22.557  0.4628E-01  0.2167E-02
    -22.543  0.6397E-01  0.3058E-02
    -22.529  0.8763E-01  0.4278E-02
    -22.515  0.1190E+00  0.5935E-02
    -22.501  0.1600E+00  0.8163E-02
    -22.487  0.2134E+00  0.1113E-01
    -22.473  0.2819E+00  0.1506E-01
    -22.459  0.3693E+00  0.2020E-01
    -22.445  0.4794E+00  0.2688E-01
    -22.432  0.6169E+00  0.3547E-01
    -22.418  0.7869E+00  0.4643E-01
    -22.404  0.9951E+00  0.6029E-01
    -22.390  0.1247E+01  0.7766E-01
    -22.376  0.1550E+01  0.9925E-01
    -22.362  0.1911E+01  0.1259E+00
    -22.348  0.2334E+01  0.1584E+00
    -22.334  0.2828E+01  0.1978E+00
    -22.320  0.3398E+01  0.2451E+00
    -22.306  0.4050E+01  0.3015E+00
    -22.292  0.4787E+01  0.3681E+00
    -22.278  0.5612E+01  0.4463E+00
    -22.264  0.6526E+01  0.5372E+00
    -22.251  0.7530E+01  0.6421E+00
    -22.237  0.8621E+01  0.7621E+00
    -22.223  0.9793E+01  0.8985E+00
    -22.209  0.1104E+02  0.1052E+01
    -22.195  0.1236E+02  0.1224E+01
    -22.181  0.1372E+02  0.1415E+01
    -22.167  0.1514E+02  0.1626E+01
    -22.153  0.1658E+02  0.1857E+01
    -22.139  0.1803E+02  0.2108E+01
    -22.125  0.1947E+02  0.2379E+01
    -22.111  0.2090E+02  0.2670E+01
    -22.097  0.2228E+02  0.2981E+01
    -22.083  0.2361E+02  0.3309E+01
    -22.069  0.2487E+02  0.3656E+01
    -22.056  0.2604E+02  0.4018E+01
    -22.042  0.2712E+02  0.4396E+01
    -22.028  0.2810E+02  0.4788E+01
    -22.014  0.2896E+02  0.5191E+01
    -22.000  0.2971E+02  0.5605E+01
    -21.986  0.3034E+02  0.6027E+01
    -21.972  0.3085E+02  0.6457E+01
    -21.958  0.3125E+02  0.6892E+01
    -21.944  0.3154E+02  0.7331E+01
    -21.930  0.3173E+02  0.7773E+01
    -21.916  0.3184E+02  0.8216E+01
    -21.902  0.3186E+02  0.8660E+01
    -21.888  0.3182E+02  0.9103E+01
    -21.875  0.3172E+02  0.9545E+01
    -21.861  0.3158E+02  0.9985E+01
    -21.847  0.3142E+02  0.1042E+02
    -21.833  0.3124E+02  0.1086E+02
    -21.819  0.3105E+02  0.1129E+02
    -21.805  0.3088E+02  0.1172E+02
    -21.791  0.3072E+02  0.1215E+02
    -21.777  0.3058E+02  0.1257E+02
    -21.763  0.3049E+02  0.1300E+02
    -21.749  0.3043E+02  0.1342E+02
    -21.735  0.3041E+02  0.1385E+02
    -21.721  0.3044E+02  0.1427E+02
    -21.707  0.3052E+02  0.1469E+02
    -21.693  0.3065E+02  0.1512E+02
    -21.680  0.3083E+02  0.1555E+02
    -21.666  0.3105E+02  0.1598E+02
    -21.652  0.3132E+02  0.1642E+02
    -21.638  0.3162E+02  0.1686E+02
    -21.624  0.3196E+02  0.1730E+02
    -21.610  0.3234E+02  0.1775E+02
    -21.596  0.3273E+02  0.1821E+02
    -21.582  0.3315E+02  0.1867E+02
    -21.568  0.3357E+02  0.1914E+02
    -21.554  0.3401E+02  0.1961E+02
    -21.540  0.3445E+02  0.2009E+02
    -21.526  0.3488E+02  0.2058E+02
    -21.512  0.3530E+02  0.2107E+02
    -21.498  0.3571E+02  0.2157E+02
    -21.485  0.3610E+02  0.2207E+02
    -21.471  0.3646E+02  0.2258E+02
    -21.457  0.3679E+02  0.2309E+02
    -21.443  0.3710E+02  0.2361E+02
    -21.429  0.3737E+02  0.2413E+02
    -21.415  0.3760E+02  0.2465E+02
    -21.401  0.3780E+02  0.2518E+02
    -21.387  0.3796E+02  0.2571E+02
    -21.373  0.3808E+02  0.2624E+02
    -21.359  0.3816E+02  0.2677E+02
    -21.345  0.3820E+02  0.2730E+02
    -21.331  0.3821E+02  0.2783E+02
    -21.317  0.3819E+02  0.2836E+02
    -21.304  0.3813E+02  0.2890E+02
    -21.290  0.3805E+02  0.2943E+02
    -21.276  0.3794E+02  0.2995E+02
    -21.262  0.3782E+02  0.3048E+02
    -21.248  0.3768E+02  0.3100E+02
    -21.234  0.3753E+02  0.3153E+02
    -21.220  0.3737E+02  0.3205E+02
    -21.206  0.3720E+02  0.3257E+02
    -21.192  0.3704E+02  0.3308E+02
    -21.178  0.3688E+02  0.3360E+02
    -21.164  0.3673E+02  0.3411E+02
    -21.150  0.3660E+02  0.3462E+02
    -21.136  0.3647E+02  0.3512E+02
    -21.122  0.3636E+02  0.3563E+02
    -21.109  0.3627E+02  0.3614E+02
    -21.095  0.3620E+02  0.3664E+02
    -21.081  0.3614E+02  0.3714E+02
    -21.067  0.3611E+02  0.3765E+02
    -21.053  0.3609E+02  0.3815E+02
    -21.039  0.3610E+02  0.3865E+02
    -21.025  0.3612E+02  0.3915E+02
    -21.011  0.3615E+02  0.3966E+02
    -20.997  0.3621E+02  0.4016E+02
    -20.983  0.3627E+02  0.4067E+02
    -20.969  0.3635E+02  0.4117E+02
    -20.955  0.3643E+02  0.4168E+02
    -20.941  0.3652E+02  0.4219E+02
    -20.928  0.3662E+02  0.4270E+02
    -20.914  0.3672E+02  0.4321E+02
    -20.900  0.3682E+02  0.4372E+02
    -20.886  0.3692E+02  0.4424E+02
    -20.872  0.3702E+02  0.4475E+02
    -20.858  0.3712E+02  0.4527E+02
    -20.844  0.3721E+02  0.4579E+02
    -20.830  0.3729E+02  0.4631E+02
    -20.816  0.3737E+02  0.4683E+02
    -20.802  0.3745E+02  0.4735E+02
    -20.788  0.3752E+02  0.4787E+02
    -20.774  0.3758E+02  0.4840E+02
    -20.760  0.3764E+02  0.4892E+02
    -20.746  0.3771E+02  0.4945E+02
    -20.733  0.3777E+02  0.4997E+02
    -20.719  0.3784E+02  0.5050E+02
    -20.705  0.3791E+02  0.5103E+02
    -20.691  0.3799E+02  0.5156E+02
    -20.677  0.3808E+02  0.5209E+02
    -20.663  0.3817E+02  0.5262E+02
    -20.649  0.3828E+02  0.5315E+02
    -20.635  0.3840E+02  0.5369E+02
    -20.621  0.3853E+02  0.5422E+02
    -20.607  0.3867E+02  0.5476E+02
    -20.593  0.3881E+02  0.5530E+02
    -20.579  0.3896E+02  0.5584E+02
    -20.565  0.3912E+02  0.5639E+02
    -20.551  0.3927E+02  0.5694E+02
    -20.538  0.3943E+02  0.5748E+02
    -20.524  0.3958E+02  0.5804E+02
    -20.510  0.3973E+02  0.5859E+02
    -20.496  0.3988E+02  0.5914E+02
    -20.482  0.4001E+02  0.5970E+02
    -20.468  0.4015E+02  0.6026E+02
    -20.454  0.4027E+02  0.6082E+02
    -20.440  0.4039E+02  0.6138E+02
    -20.426  0.4051E+02  0.6195E+02
    -20.412  0.4062E+02  0.6251E+02
    -20.398  0.4073E+02  0.6308E+02
    -20.384  0.4084E+02  0.6365E+02
    -20.370  0.4096E+02  0.6422E+02
    -20.357  0.4107E+02  0.6479E+02
    -20.343  0.4119E+02  0.6537E+02
    -20.329  0.4131E+02  0.6594E+02
    -20.315  0.4144E+02  0.6652E+02
    -20.301  0.4156E+02  0.6710E+02
    -20.287  0.4168E+02  0.6768E+02
    -20.273  0.4180E+02  0.6826E+02
    -20.259  0.4190E+02  0.6884E+02
    -20.245  0.4200E+02  0.6943E+02
    -20.231  0.4208E+02  0.7001E+02
    -20.217  0.4213E+02  0.7060E+02
    -20.203  0.4217E+02  0.7119E+02
    -20.189  0.4218E+02  0.7178E+02
    -20.175  0.4216E+02  0.7236E+02
    -20.162  0.4211E+02  0.7295E+02
    -20.148  0.4204E+02  0.7353E+02
    -20.134  0.4193E+02  0.7412E+02
    -20.120  0.4181E+02  0.7470E+02
    -20.106  0.4166E+02  0.7528E+02
    -20.092  0.4149E+02  0.7586E+02
    -20.078  0.4131E+02  0.7643E+02
    -20.064  0.4112E+02  0.7701E+02
    -20.050  0.4093E+02  0.7758E+02
    -20.036  0.4074E+02  0.7814E+02
    -20.022  0.4056E+02  0.7871E+02
    -20.008  0.4039E+02  0.7927E+02
    -19.994  0.4024E+02  0.7983E+02
    -19.981  0.4010E+02  0.8039E+02
    -19.967  0.3999E+02  0.8095E+02
    -19.953  0.3990E+02  0.8150E+02
    -19.939  0.3983E+02  0.8206E+02
    -19.925  0.3978E+02  0.8261E+02
    -19.911  0.3976E+02  0.8317E+02
    -19.897  0.3975E+02  0.8372E+02
    -19.883  0.3975E+02  0.8427E+02
    -19.869  0.3976E+02  0.8483E+02
    -19.855  0.3978E+02  0.8538E+02
    -19.841  0.3980E+02  0.8593E+02
    -19.827  0.3981E+02  0.8649E+02
    -19.813  0.3981E+02  0.8704E+02
    -19.799  0.3980E+02  0.8760E+02
    -19.786  0.3977E+02  0.8815E+02
    -19.772  0.3972E+02  0.8870E+02
    -19.758  0.3966E+02  0.8926E+02
    -19.744  0.3957E+02  0.8981E+02
    -19.730  0.3946E+02  0.9036E+02
    -19.716  0.3934E+02  0.9091E+02
    -19.702  0.3920E+02  0.9145E+02
    -19.688  0.3904E+02  0.9199E+02
    -19.674  0.3887E+02  0.9254E+02
    -19.660  0.3870E+02  0.9307E+02
    -19.646  0.3852E+02  0.9361E+02
    -19.632  0.3834E+02  0.9415E+02
    -19.618  0.3817E+02  0.9468E+02
    -19.604  0.3801E+02  0.9521E+02
    -19.591  0.3785E+02  0.9573E+02
    -19.577  0.3772E+02  0.9626E+02
    -19.563  0.3760E+02  0.9678E+02
    -19.549  0.3751E+02  0.9730E+02
    -19.535  0.3744E+02  0.9783E+02
    -19.521  0.3739E+02  0.9835E+02
    -19.507  0.3737E+02  0.9887E+02
    -19.493  0.3738E+02  0.9939E+02
    -19.479  0.3742E+02  0.9991E+02
    -19.465  0.3749E+02  0.1004E+03
    -19.451  0.3759E+02  0.1010E+03
    -19.437  0.3771E+02  0.1015E+03
    -19.423  0.3785E+02  0.1020E+03
    -19.410  0.3803E+02  0.1025E+03
    -19.396  0.3822E+02  0.1031E+03
    -19.382  0.3844E+02  0.1036E+03
    -19.368  0.3867E+02  0.1041E+03
    -19.354  0.3892E+02  0.1047E+03
    -19.340  0.3918E+02  0.1052E+03
    -19.326  0.3945E+02  0.1058E+03
    -19.312  0.3974E+02  0.1063E+03
    -19.298  0.4003E+02  0.1069E+03
    -19.284  0.4032E+02  0.1075E+03
    -19.270  0.4061E+02  0.1080E+03
    -19.256  0.4090E+02  0.1086E+03
    -19.242  0.4119E+02  0.1092E+03
    -19.228  0.4147E+02  0.1097E+03
    -19.215  0.4174E+02  0.1103E+03
    -19.201  0.4199E+02  0.1109E+03
    -19.187  0.4223E+02  0.1115E+03
    -19.173  0.4246E+02  0.1121E+03
    -19.159  0.4266E+02  0.1127E+03
    -19.145  0.4285E+02  0.1133E+03
    -19.131  0.4301E+02  0.1139E+03
    -19.117  0.4314E+02  0.1145E+03
    -19.103  0.4326E+02  0.1151E+03
    -19.089  0.4334E+02  0.1157E+03
    -19.075  0.4340E+02  0.1163E+03
    -19.061  0.4344E+02  0.1169E+03
    -19.047  0.4346E+02  0.1175E+03
    -19.034  0.4345E+02  0.1181E+03
    -19.020  0.4343E+02  0.1187E+03
    -19.006  0.4339E+02  0.1193E+03
    -18.992  0.4334E+02  0.1199E+03
    -18.978  0.4328E+02  0.1205E+03
    -18.964  0.4322E+02  0.1211E+03
    -18.950  0.4315E+02  0.1217E+03
    -18.936  0.4309E+02  0.1223E+03
    -18.922  0.4303E+02  0.1229E+03
    -18.908  0.4298E+02  0.1235E+03
    -18.894  0.4293E+02  0.1241E+03
    -18.880  0.4290E+02  0.1247E+03
    -18.866  0.4287E+02  0.1253E+03
    -18.852  0.4285E+02  0.1259E+03
    -18.839  0.4284E+02  0.1265E+03
    -18.825  0.4284E+02  0.1271E+03
    -18.811  0.4283E+02  0.1277E+03
    -18.797  0.4284E+02  0.1283E+03
    -18.783  0.4284E+02  0.1289E+03
    -18.769  0.4283E+02  0.1295E+03
    -18.755  0.4283E+02  0.1301E+03
    -18.741  0.4281E+02  0.1307E+03
    -18.727  0.4279E+02  0.1313E+03
    -18.713  0.4277E+02  0.1319E+03
    -18.699  0.4273E+02  0.1325E+03
    -18.685  0.4269E+02  0.1331E+03
    -18.671  0.4265E+02  0.1337E+03
    -18.657  0.4260E+02  0.1342E+03
    -18.644  0.4256E+02  0.1348E+03
    -18.630  0.4253E+02  0.1354E+03
    -18.616  0.4250E+02  0.1360E+03
    -18.602  0.4249E+02  0.1366E+03
    -18.588  0.4249E+02  0.1372E+03
    -18.574  0.4252E+02  0.1378E+03
    -18.560  0.4257E+02  0.1384E+03
    -18.546  0.4264E+02  0.1390E+03
    -18.532  0.4275E+02  0.1396E+03
    -18.518  0.4288E+02  0.1402E+03
    -18.504  0.4304E+02  0.1408E+03
    -18.490  0.4322E+02  0.1414E+03
    -18.476  0.4342E+02  0.1420E+03
    -18.463  0.4364E+02  0.1426E+03
    -18.449  0.4386E+02  0.1432E+03
    -18.435  0.4410E+02  0.1438E+03
    -18.421  0.4433E+02  0.1444E+03
    -18.407  0.4456E+02  0.1451E+03
    -18.393  0.4478E+02  0.1457E+03
    -18.379  0.4498E+02  0.1463E+03
    -18.365  0.4517E+02  0.1469E+03
    -18.351  0.4532E+02  0.1476E+03
    -18.337  0.4545E+02  0.1482E+03
    -18.323  0.4556E+02  0.1488E+03
    -18.309  0.4563E+02  0.1495E+03
    -18.295  0.4567E+02  0.1501E+03
    -18.281  0.4569E+02  0.1507E+03
    -18.268  0.4567E+02  0.1514E+03
    -18.254  0.4564E+02  0.1520E+03
    -18.240  0.4558E+02  0.1526E+03
    -18.226  0.4550E+02  0.1533E+03
    -18.212  0.4541E+02  0.1539E+03
    -18.198  0.4531E+02  0.1545E+03
    -18.184  0.4520E+02  0.1552E+03
    -18.170  0.4509E+02  0.1558E+03
    -18.156  0.4499E+02  0.1564E+03
    -18.142  0.4488E+02  0.1571E+03
    -18.128  0.4479E+02  0.1577E+03
    -18.114  0.4470E+02  0.1583E+03
    -18.100  0.4464E+02  0.1589E+03
    -18.087  0.4459E+02  0.1595E+03
    -18.073  0.4456E+02  0.1602E+03
    -18.059  0.4455E+02  0.1608E+03
    -18.045  0.4457E+02  0.1614E+03
    -18.031  0.4462E+02  0.1620E+03
    -18.017  0.4469E+02  0.1626E+03
    -18.003  0.4478E+02  0.1633E+03
    -17.989  0.4490E+02  0.1639E+03
    -17.975  0.4505E+02  0.1645E+03
    -17.961  0.4522E+02  0.1652E+03
    -17.947  0.4541E+02  0.1658E+03
    -17.933  0.4561E+02  0.1664E+03
    -17.919  0.4583E+02  0.1671E+03
    -17.905  0.4607E+02  0.1677E+03
    -17.892  0.4630E+02  0.1683E+03
    -17.878  0.4654E+02  0.1690E+03
    -17.864  0.4677E+02  0.1696E+03
    -17.850  0.4700E+02  0.1703E+03
    -17.836  0.4721E+02  0.1710E+03
    -17.822  0.4740E+02  0.1716E+03
    -17.808  0.4756E+02  0.1723E+03
    -17.794  0.4769E+02  0.1729E+03
    -17.780  0.4779E+02  0.1736E+03
    -17.766  0.4786E+02  0.1743E+03
    -17.752  0.4788E+02  0.1749E+03
    -17.738  0.4787E+02  0.1756E+03
    -17.724  0.4781E+02  0.1763E+03
    -17.710  0.4772E+02  0.1769E+03
    -17.697  0.4759E+02  0.1776E+03
    -17.683  0.4744E+02  0.1783E+03
    -17.669  0.4725E+02  0.1789E+03
    -17.655  0.4705E+02  0.1796E+03
    -17.641  0.4683E+02  0.1802E+03
    -17.627  0.4660E+02  0.1809E+03
    -17.613  0.4637E+02  0.1815E+03
    -17.599  0.4615E+02  0.1822E+03
    -17.585  0.4593E+02  0.1828E+03
    -17.571  0.4574E+02  0.1834E+03
    -17.557  0.4556E+02  0.1841E+03
    -17.543  0.4542E+02  0.1847E+03
    -17.529  0.4531E+02  0.1853E+03
    -17.516  0.4523E+02  0.1860E+03
    -17.502  0.4518E+02  0.1866E+03
    -17.488  0.4518E+02  0.1872E+03
    -17.474  0.4521E+02  0.1879E+03
    -17.460  0.4527E+02  0.1885E+03
    -17.446  0.4537E+02  0.1891E+03
    -17.432  0.4549E+02  0.1898E+03
    -17.418  0.4564E+02  0.1904E+03
    -17.404  0.4581E+02  0.1910E+03
    -17.390  0.4598E+02  0.1917E+03
    -17.376  0.4617E+02  0.1923E+03
    -17.362  0.4635E+02  0.1930E+03
    -17.348  0.4653E+02  0.1936E+03
    -17.334  0.4670E+02  0.1943E+03
    -17.321  0.4685E+02  0.1949E+03
    -17.307  0.4697E+02  0.1956E+03
    -17.293  0.4707E+02  0.1962E+03
    -17.279  0.4714E+02  0.1969E+03
    -17.265  0.4718E+02  0.1975E+03
    -17.251  0.4718E+02  0.1982E+03
    -17.237  0.4715E+02  0.1988E+03
    -17.223  0.4708E+02  0.1995E+03
    -17.209  0.4699E+02  0.2002E+03
    -17.195  0.4685E+02  0.2008E+03
    -17.181  0.4670E+02  0.2015E+03
    -17.167  0.4651E+02  0.2021E+03
    -17.153  0.4630E+02  0.2027E+03
    -17.140  0.4607E+02  0.2034E+03
    -17.126  0.4583E+02  0.2040E+03
    -17.112  0.4557E+02  0.2047E+03
    -17.098  0.4530E+02  0.2053E+03
    -17.084  0.4501E+02  0.2059E+03
    -17.070  0.4472E+02  0.2065E+03
    -17.056  0.4443E+02  0.2072E+03
    -17.042  0.4412E+02  0.2078E+03
    -17.028  0.4381E+02  0.2084E+03
    -17.014  0.4350E+02  0.2090E+03
    -17.000  0.4318E+02  0.2096E+03
    -16.986  0.4285E+02  0.2102E+03
    -16.972  0.4252E+02  0.2108E+03
    -16.958  0.4218E+02  0.2114E+03
    -16.945  0.4184E+02  0.2120E+03
    -16.931  0.4149E+02  0.2125E+03
    -16.917  0.4114E+02  0.2131E+03
    -16.903  0.4078E+02  0.2137E+03
    -16.889  0.4041E+02  0.2142E+03
    -16.875  0.4005E+02  0.2148E+03
    -16.861  0.3969E+02  0.2153E+03
    -16.847  0.3933E+02  0.2159E+03
    -16.833  0.3897E+02  0.2164E+03
    -16.819  0.3862E+02  0.2170E+03
    -16.805  0.3827E+02  0.2175E+03
    -16.791  0.3794E+02  0.2180E+03
    -16.777  0.3761E+02  0.2186E+03
    -16.763  0.3729E+02  0.2191E+03
    -16.750  0.3698E+02  0.2196E+03
    -16.736  0.3667E+02  0.2201E+03
    -16.722  0.3638E+02  0.2206E+03
    -16.708  0.3609E+02  0.2211E+03
    -16.694  0.3581E+02  0.2216E+03
    -16.680  0.3553E+02  0.2221E+03
    -16.666  0.3525E+02  0.2226E+03
    -16.652  0.3498E+02  0.2231E+03
    -16.638  0.3472E+02  0.2236E+03
    -16.624  0.3445E+02  0.2240E+03
    -16.610  0.3420E+02  0.2245E+03
    -16.596  0.3394E+02  0.2250E+03
    -16.582  0.3370E+02  0.2255E+03
    -16.569  0.3346E+02  0.2259E+03
    -16.555  0.3324E+02  0.2264E+03
    -16.541  0.3303E+02  0.2269E+03
    -16.527  0.3283E+02  0.2273E+03
    -16.513  0.3265E+02  0.2278E+03
    -16.499  0.3249E+02  0.2282E+03
    -16.485  0.3234E+02  0.2287E+03
    -16.471  0.3221E+02  0.2291E+03
    -16.457  0.3209E+02  0.2296E+03
    -16.443  0.3199E+02  0.2300E+03
    -16.429  0.3189E+02  0.2305E+03
    -16.415  0.3180E+02  0.2309E+03
    -16.401  0.3171E+02  0.2313E+03
    -16.387  0.3162E+02  0.2318E+03
    -16.374  0.3153E+02  0.2322E+03
    -16.360  0.3143E+02  0.2327E+03
    -16.346  0.3131E+02  0.2331E+03
    -16.332  0.3119E+02  0.2335E+03
    -16.318  0.3106E+02  0.2340E+03
    -16.304  0.3091E+02  0.2344E+03
    -16.290  0.3077E+02  0.2348E+03
    -16.276  0.3062E+02  0.2352E+03
    -16.262  0.3047E+02  0.2357E+03
    -16.248  0.3033E+02  0.2361E+03
    -16.234  0.3020E+02  0.2365E+03
    -16.220  0.3009E+02  0.2369E+03
    -16.206  0.3000E+02  0.2373E+03
    -16.193  0.2994E+02  0.2378E+03
    -16.179  0.2991E+02  0.2382E+03
    -16.165  0.2991E+02  0.2386E+03
    -16.151  0.2994E+02  0.2390E+03
    -16.137  0.2999E+02  0.2394E+03
    -16.123  0.3008E+02  0.2399E+03
    -16.109  0.3019E+02  0.2403E+03
    -16.095  0.3032E+02  0.2407E+03
    -16.081  0.3046E+02  0.2411E+03
    -16.067  0.3062E+02  0.2415E+03
    -16.053  0.3078E+02  0.2420E+03
    -16.039  0.3095E+02  0.2424E+03
    -16.025  0.3112E+02  0.2428E+03
    -16.011  0.3130E+02  0.2433E+03
    -15.998  0.3147E+02  0.2437E+03
    -15.984  0.3164E+02  0.2442E+03
    -15.970  0.3181E+02  0.2446E+03
    -15.956  0.3199E+02  0.2450E+03
    -15.942  0.3218E+02  0.2455E+03
    -15.928  0.3237E+02  0.2459E+03
    -15.914  0.3258E+02  0.2464E+03
    -15.900  0.3279E+02  0.2469E+03
    -15.886  0.3303E+02  0.2473E+03
    -15.872  0.3328E+02  0.2478E+03
    -15.858  0.3355E+02  0.2482E+03
    -15.844  0.3384E+02  0.2487E+03
    -15.830  0.3415E+02  0.2492E+03
    -15.816  0.3447E+02  0.2497E+03
    -15.803  0.3480E+02  0.2502E+03
    -15.789  0.3514E+02  0.2506E+03
    -15.775  0.3549E+02  0.2511E+03
    -15.761  0.3585E+02  0.2516E+03
    -15.747  0.3621E+02  0.2521E+03
    -15.733  0.3657E+02  0.2527E+03
    -15.719  0.3693E+02  0.2532E+03
    -15.705  0.3729E+02  0.2537E+03
    -15.691  0.3764E+02  0.2542E+03
    -15.677  0.3799E+02  0.2547E+03
    -15.663  0.3832E+02  0.2553E+03
    -15.649  0.3865E+02  0.2558E+03
    -15.635  0.3897E+02  0.2564E+03
    -15.622  0.3928E+02  0.2569E+03
    -15.608  0.3957E+02  0.2575E+03
    -15.594  0.3986E+02  0.2580E+03
    -15.580  0.4013E+02  0.2586E+03
    -15.566  0.4039E+02  0.2591E+03
    -15.552  0.4064E+02  0.2597E+03
    -15.538  0.4088E+02  0.2603E+03
    -15.524  0.4111E+02  0.2608E+03
    -15.510  0.4133E+02  0.2614E+03
    -15.496  0.4154E+02  0.2620E+03
    -15.482  0.4174E+02  0.2626E+03
    -15.468  0.4194E+02  0.2632E+03
    -15.454  0.4213E+02  0.2637E+03
    -15.440  0.4232E+02  0.2643E+03
    -15.427  0.4252E+02  0.2649E+03
    -15.413  0.4271E+02  0.2655E+03
    -15.399  0.4291E+02  0.2661E+03
    -15.385  0.4312E+02  0.2667E+03
    -15.371  0.4333E+02  0.2673E+03
    -15.357  0.4355E+02  0.2679E+03
    -15.343  0.4377E+02  0.2685E+03
    -15.329  0.4401E+02  0.2691E+03
    -15.315  0.4425E+02  0.2698E+03
    -15.301  0.4450E+02  0.2704E+03
    -15.287  0.4476E+02  0.2710E+03
    -15.273  0.4502E+02  0.2716E+03
    -15.259  0.4529E+02  0.2723E+03
    -15.246  0.4555E+02  0.2729E+03
    -15.232  0.4581E+02  0.2735E+03
    -15.218  0.4607E+02  0.2742E+03
    -15.204  0.4633E+02  0.2748E+03
    -15.190  0.4657E+02  0.2755E+03
    -15.176  0.4681E+02  0.2761E+03
    -15.162  0.4703E+02  0.2768E+03
    -15.148  0.4723E+02  0.2774E+03
    -15.134  0.4742E+02  0.2781E+03
    -15.120  0.4759E+02  0.2788E+03
    -15.106  0.4774E+02  0.2794E+03
    -15.092  0.4787E+02  0.2801E+03
    -15.078  0.4798E+02  0.2808E+03
    -15.064  0.4806E+02  0.2814E+03
    -15.051  0.4812E+02  0.2821E+03
    -15.037  0.4817E+02  0.2828E+03
    -15.023  0.4819E+02  0.2834E+03
    -15.009  0.4819E+02  0.2841E+03
    -14.995  0.4817E+02  0.2848E+03
    -14.981  0.4813E+02  0.2855E+03
    -14.967  0.4808E+02  0.2861E+03
    -14.953  0.4801E+02  0.2868E+03
    -14.939  0.4792E+02  0.2875E+03
    -14.925  0.4783E+02  0.2881E+03
    -14.911  0.4772E+02  0.2888E+03
    -14.897  0.4760E+02  0.2895E+03
    -14.883  0.4748E+02  0.2901E+03
    -14.869  0.4735E+02  0.2908E+03
    -14.856  0.4722E+02  0.2914E+03
    -14.842  0.4710E+02  0.2921E+03
    -14.828  0.4698E+02  0.2927E+03
    -14.814  0.4686E+02  0.2934E+03
    -14.800  0.4676E+02  0.2940E+03
    -14.786  0.4668E+02  0.2947E+03
    -14.772  0.4661E+02  0.2953E+03
    -14.758  0.4656E+02  0.2960E+03
    -14.744  0.4654E+02  0.2966E+03
    -14.730  0.4654E+02  0.2973E+03
    -14.716  0.4657E+02  0.2979E+03
    -14.702  0.4662E+02  0.2986E+03
    -14.688  0.4670E+02  0.2992E+03
    -14.675  0.4680E+02  0.2999E+03
    -14.661  0.4693E+02  0.3005E+03
    -14.647  0.4707E+02  0.3012E+03
    -14.633  0.4723E+02  0.3019E+03
    -14.619  0.4739E+02  0.3025E+03
    -14.605  0.4756E+02  0.3032E+03
    -14.591  0.4773E+02  0.3038E+03
    -14.577  0.4789E+02  0.3045E+03
    -14.563  0.4803E+02  0.3052E+03
    -14.549  0.4816E+02  0.3058E+03
    -14.535  0.4827E+02  0.3065E+03
    -14.521  0.4834E+02  0.3072E+03
    -14.507  0.4839E+02  0.3079E+03
    -14.493  0.4840E+02  0.3085E+03
    -14.480  0.4836E+02  0.3092E+03
    -14.466  0.4829E+02  0.3099E+03
    -14.452  0.4818E+02  0.3106E+03
    -14.438  0.4802E+02  0.3112E+03
    -14.424  0.4782E+02  0.3119E+03
    -14.410  0.4758E+02  0.3126E+03
    -14.396  0.4729E+02  0.3132E+03
    -14.382  0.4697E+02  0.3139E+03
    -14.368  0.4662E+02  0.3145E+03
    -14.354  0.4623E+02  0.3152E+03
    -14.340  0.4582E+02  0.3158E+03
    -14.326  0.4538E+02  0.3164E+03
    -14.312  0.4493E+02  0.3171E+03
    -14.298  0.4447E+02  0.3177E+03
    -14.285  0.4400E+02  0.3183E+03
    -14.271  0.4354E+02  0.3189E+03
    -14.257  0.4308E+02  0.3195E+03
    -14.243  0.4263E+02  0.3201E+03
    -14.229  0.4221E+02  0.3207E+03
    -14.215  0.4181E+02  0.3213E+03
    -14.201  0.4144E+02  0.3218E+03
    -14.187  0.4110E+02  0.3224E+03
    -14.173  0.4080E+02  0.3230E+03
    -14.159  0.4054E+02  0.3235E+03
    -14.145  0.4033E+02  0.3241E+03
    -14.131  0.4016E+02  0.3247E+03
    -14.117  0.4003E+02  0.3252E+03
    -14.104  0.3995E+02  0.3258E+03
    -14.090  0.3990E+02  0.3263E+03
    -14.076  0.3990E+02  0.3269E+03
    -14.062  0.3993E+02  0.3274E+03
    -14.048  0.3999E+02  0.3280E+03
    -14.034  0.4007E+02  0.3286E+03
    -14.020  0.4017E+02  0.3291E+03
    -14.006  0.4027E+02  0.3297E+03
    -13.992  0.4039E+02  0.3302E+03
    -13.978  0.4049E+02  0.3308E+03
    -13.964  0.4059E+02  0.3314E+03
    -13.950  0.4067E+02  0.3319E+03
    -13.936  0.4073E+02  0.3325E+03
    -13.922  0.4077E+02  0.3331E+03
    -13.909  0.4079E+02  0.3336E+03
    -13.895  0.4077E+02  0.3342E+03
    -13.881  0.4073E+02  0.3348E+03
    -13.867  0.4066E+02  0.3353E+03
    -13.853  0.4057E+02  0.3359E+03
    -13.839  0.4046E+02  0.3365E+03
    -13.825  0.4032E+02  0.3370E+03
    -13.811  0.4018E+02  0.3376E+03
    -13.797  0.4002E+02  0.3381E+03
    -13.783  0.3986E+02  0.3387E+03
    -13.769  0.3970E+02  0.3393E+03
    -13.755  0.3953E+02  0.3398E+03
    -13.741  0.3937E+02  0.3404E+03
    -13.728  0.3922E+02  0.3409E+03
    -13.714  0.3907E+02  0.3414E+03
    -13.700  0.3893E+02  0.3420E+03
    -13.686  0.3880E+02  0.3425E+03
    -13.672  0.3867E+02  0.3431E+03
    -13.658  0.3854E+02  0.3436E+03
    -13.644  0.3842E+02  0.3441E+03
    -13.630  0.3831E+02  0.3447E+03
    -13.616  0.3819E+02  0.3452E+03
    -13.602  0.3808E+02  0.3457E+03
    -13.588  0.3796E+02  0.3463E+03
    -13.574  0.3784E+02  0.3468E+03
    -13.560  0.3773E+02  0.3473E+03
    -13.546  0.3761E+02  0.3478E+03
    -13.533  0.3749E+02  0.3484E+03
    -13.519  0.3738E+02  0.3489E+03
    -13.505  0.3728E+02  0.3494E+03
    -13.491  0.3719E+02  0.3499E+03
    -13.477  0.3711E+02  0.3504E+03
    -13.463  0.3705E+02  0.3510E+03
    -13.449  0.3701E+02  0.3515E+03
    -13.435  0.3699E+02  0.3520E+03
    -13.421  0.3701E+02  0.3525E+03
    -13.407  0.3705E+02  0.3530E+03
    -13.393  0.3713E+02  0.3535E+03
    -13.379  0.3724E+02  0.3541E+03
    -13.365  0.3739E+02  0.3546E+03
    -13.351  0.3757E+02  0.3551E+03
    -13.338  0.3778E+02  0.3556E+03
    -13.324  0.3802E+02  0.3562E+03
    -13.310  0.3828E+02  0.3567E+03
    -13.296  0.3857E+02  0.3572E+03
    -13.282  0.3887E+02  0.3578E+03
    -13.268  0.3918E+02  0.3583E+03
    -13.254  0.3949E+02  0.3589E+03
    -13.240  0.3980E+02  0.3594E+03
    -13.226  0.4010E+02  0.3600E+03
    -13.212  0.4038E+02  0.3605E+03
    -13.198  0.4065E+02  0.3611E+03
    -13.184  0.4089E+02  0.3617E+03
    -13.170  0.4109E+02  0.3622E+03
    -13.157  0.4127E+02  0.3628E+03
    -13.143  0.4141E+02  0.3634E+03
    -13.129  0.4152E+02  0.3640E+03
    -13.115  0.4159E+02  0.3645E+03
    -13.101  0.4163E+02  0.3651E+03
    -13.087  0.4163E+02  0.3657E+03
    -13.073  0.4160E+02  0.3663E+03
    -13.059  0.4155E+02  0.3669E+03
    -13.045  0.4148E+02  0.3674E+03
    -13.031  0.4139E+02  0.3680E+03
    -13.017  0.4129E+02  0.3686E+03
    -13.003  0.4118E+02  0.3692E+03
    -12.989  0.4107E+02  0.3697E+03
    -12.975  0.4097E+02  0.3703E+03
    -12.962  0.4088E+02  0.3709E+03
    -12.948  0.4082E+02  0.3714E+03
    -12.934  0.4078E+02  0.3720E+03
    -12.920  0.4077E+02  0.3726E+03
    -12.906  0.4079E+02  0.3732E+03
    -12.892  0.4086E+02  0.3737E+03
    -12.878  0.4097E+02  0.3743E+03
    -12.864  0.4112E+02  0.3749E+03
    -12.850  0.4133E+02  0.3754E+03
    -12.836  0.4157E+02  0.3760E+03
    -12.822  0.4186E+02  0.3766E+03
    -12.808  0.4220E+02  0.3772E+03
    -12.794  0.4256E+02  0.3778E+03
    -12.781  0.4297E+02  0.3784E+03
    -12.767  0.4339E+02  0.3790E+03
    -12.753  0.4384E+02  0.3796E+03
    -12.739  0.4430E+02  0.3802E+03
    -12.725  0.4476E+02  0.3808E+03
    -12.711  0.4523E+02  0.3815E+03
    -12.697  0.4569E+02  0.3821E+03
    -12.683  0.4614E+02  0.3827E+03
    -12.669  0.4656E+02  0.3834E+03
    -12.655  0.4697E+02  0.3840E+03
    -12.641  0.4734E+02  0.3847E+03
    -12.627  0.4769E+02  0.3854E+03