 191 191   0   0
  0.4715109E+02  0.2418569E-08  0.1861815E-08  0.2000000E-08  0.5000000E-15
  1.000000000000000E-004
  CAR 
 unknown system                          
      3.72915371    -24.52471970 2000     -3.33669900      1.00000000
    -24.525  0.0000E+00  0.0000E+00
    -24.511  0.0000E+00  0.0000E+00
    -24.496  0.0000E+00  0.0000E+00
    -24.482  0.0000E+00  0.0000E+00
    -24.468  0.0000E+00  0.0000E+00
    -24.454  0.0000E+00  0.0000E+00
    -24.440  0.0000E+00  0.0000E+00
    -24.426  0.0000E+00  0.0000E+00
    -24.412  0.0000E+00  0.0000E+00
    -24.398  0.0000E+00  0.0000E+00
    -24.383  0.0000E+00  0.0000E+00
    -24.369  0.0000E+00  0.0000E+00
    -24.355  0.0000E+00  0.0000E+00
    -24.341  0.0000E+00  0.0000E+00
    -24.327  0.0000E+00  0.0000E+00
    -24.313  0.0000E+00  0.0000E+00
    -24.299  0.0000E+00  0.0000E+00
    -24.284  0.0000E+00  0.0000E+00
    -24.270  0.0000E+00  0.0000E+00
    -24.256  0.0000E+00  0.0000E+00
    -24.242  0.0000E+00  0.0000E+00
    -24.228  0.0000E+00  0.0000E+00
    -24.214  0.0000E+00  0.0000E+00
    -24.200  0.0000E+00  0.0000E+00
    -24.186  0.0000E+00  0.0000E+00
    -24.171  0.0000E+00  0.0000E+00
    -24.157  0.0000E+00  0.0000E+00
    -24.143  0.0000E+00  0.0000E+00
    -24.129  0.0000E+00  0.0000E+00
    -24.115  0.0000E+00  0.0000E+00
    -24.101  0.0000E+00  0.0000E+00
    -24.087  0.0000E+00  0.0000E+00
    -24.072  0.0000E+00  0.0000E+00
    -24.058  0.0000E+00  0.0000E+00
    -24.044  0.0000E+00  0.0000E+00
    -24.030  0.0000E+00  0.0000E+00
    -24.016  0.0000E+00  0.0000E+00
    -24.002  0.0000E+00  0.0000E+00
    -23.988  0.0000E+00  0.0000E+00
    -23.973  0.0000E+00  0.0000E+00
    -23.959  0.0000E+00  0.0000E+00
    -23.945  0.0000E+00  0.0000E+00
    -23.931  0.0000E+00  0.0000E+00
    -23.917  0.0000E+00  0.0000E+00
    -23.903  0.0000E+00  0.0000E+00
    -23.889  0.0000E+00  0.0000E+00
    -23.875  0.0000E+00  0.0000E+00
    -23.860  0.0000E+00  0.0000E+00
    -23.846  0.0000E+00  0.0000E+00
    -23.832  0.0000E+00  0.0000E+00
    -23.818  0.0000E+00  0.0000E+00
    -23.804  0.0000E+00  0.0000E+00
    -23.790  0.0000E+00  0.0000E+00
    -23.776  0.0000E+00  0.0000E+00
    -23.761  0.0000E+00  0.0000E+00
    -23.747  0.0000E+00  0.0000E+00
    -23.733  0.0000E+00  0.0000E+00
    -23.719  0.0000E+00  0.0000E+00
    -23.705  0.7855E-14  0.1110E-15
    -23.691  0.0000E+00  0.1110E-15
    -23.677  0.1571E-13  0.3331E-15
    -23.663  0.3927E-13  0.8882E-15
    -23.648  0.7069E-13  0.1887E-14
    -23.634  0.1676E-12  0.4256E-14
    -23.620  0.3674E-12  0.9449E-14
    -23.606  0.7899E-12  0.2061E-13
    -23.592  0.1696E-11  0.4458E-13
    -23.578  0.3607E-11  0.9557E-13
    -23.564  0.7584E-11  0.2028E-12
    -23.549  0.1579E-10  0.4260E-12
    -23.535  0.3258E-10  0.8864E-12
    -23.521  0.6650E-10  0.1826E-11
    -23.507  0.1344E-09  0.3726E-11
    -23.493  0.2690E-09  0.7528E-11
    -23.479  0.5329E-09  0.1506E-10
    -23.465  0.1045E-08  0.2984E-10
    -23.451  0.2030E-08  0.5854E-10
    -23.436  0.3904E-08  0.1137E-09
    -23.422  0.7433E-08  0.2188E-09
    -23.408  0.1401E-07  0.4168E-09
    -23.394  0.2615E-07  0.7863E-09
    -23.380  0.4831E-07  0.1469E-08
    -23.366  0.8837E-07  0.2718E-08
    -23.352  0.1600E-06  0.4980E-08
    -23.337  0.2870E-06  0.9036E-08
    -23.323  0.5095E-06  0.1624E-07
    -23.309  0.8955E-06  0.2889E-07
    -23.295  0.1558E-05  0.5092E-07
    -23.281  0.2685E-05  0.8887E-07
    -23.267  0.4580E-05  0.1536E-06
    -23.253  0.7736E-05  0.2629E-06
    -23.239  0.1294E-04  0.4458E-06
    -23.224  0.2141E-04  0.7484E-06
    -23.210  0.3510E-04  0.1245E-05
    -23.196  0.5696E-04  0.2050E-05
    -23.182  0.9152E-04  0.3343E-05
    -23.168  0.1456E-03  0.5401E-05
    -23.154  0.2293E-03  0.8642E-05
    -23.140  0.3575E-03  0.1369E-04
    -23.125  0.5520E-03  0.2150E-04
    -23.111  0.8437E-03  0.3342E-04
    -23.097  0.1277E-02  0.5147E-04
    -23.083  0.1913E-02  0.7850E-04
    -23.069  0.2838E-02  0.1186E-03
    -23.055  0.4167E-02  0.1775E-03
    -23.041  0.6060E-02  0.2632E-03
    -23.027  0.8724E-02  0.3865E-03
    -23.012  0.1243E-01  0.5622E-03
    -22.998  0.1755E-01  0.8102E-03
    -22.984  0.2452E-01  0.1157E-02
    -22.970  0.3392E-01  0.1636E-02
    -22.956  0.4645E-01  0.2293E-02
    -22.942  0.6298E-01  0.3183E-02
    -22.928  0.8456E-01  0.4378E-02
    -22.913  0.1124E+00  0.5967E-02
    -22.899  0.1479E+00  0.8057E-02
    -22.885  0.1927E+00  0.1078E-01
    -22.871  0.2486E+00  0.1429E-01
    -22.857  0.3175E+00  0.1878E-01
    -22.843  0.4015E+00  0.2446E-01
    -22.829  0.5026E+00  0.3156E-01
    -22.815  0.6230E+00  0.4036E-01
    -22.800  0.7645E+00  0.5117E-01
    -22.786  0.9289E+00  0.6430E-01
    -22.772  0.1117E+01  0.8009E-01
    -22.758  0.1331E+01  0.9890E-01
    -22.744  0.1569E+01  0.1211E+00
    -22.730  0.1832E+01  0.1470E+00
    -22.716  0.2118E+01  0.1769E+00
    -22.701  0.2424E+01  0.2112E+00
    -22.687  0.2747E+01  0.2500E+00
    -22.673  0.3082E+01  0.2936E+00
    -22.659  0.3425E+01  0.3420E+00
    -22.645  0.3767E+01  0.3952E+00
    -22.631  0.4104E+01  0.4532E+00
    -22.617  0.4427E+01  0.5158E+00
    -22.602  0.4729E+01  0.5826E+00
    -22.588  0.5003E+01  0.6534E+00
    -22.574  0.5243E+01  0.7275E+00
    -22.560  0.5443E+01  0.8044E+00
    -22.546  0.5599E+01  0.8835E+00
    -22.532  0.5707E+01  0.9642E+00
    -22.518  0.5768E+01  0.1046E+01
    -22.504  0.5782E+01  0.1127E+01
    -22.489  0.5751E+01  0.1209E+01
    -22.475  0.5680E+01  0.1289E+01
    -22.461  0.5576E+01  0.1368E+01
    -22.447  0.5447E+01  0.1445E+01
    -22.433  0.5302E+01  0.1520E+01
    -22.419  0.5150E+01  0.1593E+01
    -22.405  0.5003E+01  0.1663E+01
    -22.390  0.4871E+01  0.1732E+01
    -22.376  0.4764E+01  0.1799E+01
    -22.362  0.4692E+01  0.1866E+01
    -22.348  0.4663E+01  0.1932E+01
    -22.334  0.4684E+01  0.1998E+01
    -22.320  0.4760E+01  0.2065E+01
    -22.306  0.4894E+01  0.2134E+01
    -22.292  0.5087E+01  0.2206E+01
    -22.277  0.5339E+01  0.2282E+01
    -22.263  0.5646E+01  0.2361E+01
    -22.249  0.6003E+01  0.2446E+01
    -22.235  0.6406E+01  0.2537E+01
    -22.221  0.6845E+01  0.2634E+01
    -22.207  0.7312E+01  0.2737E+01
    -22.193  0.7798E+01  0.2847E+01
    -22.178  0.8294E+01  0.2964E+01
    -22.164  0.8790E+01  0.3089E+01
    -22.150  0.9278E+01  0.3220E+01
    -22.136  0.9749E+01  0.3358E+01
    -22.122  0.1020E+02  0.3502E+01
    -22.108  0.1062E+02  0.3652E+01
    -22.094  0.1101E+02  0.3807E+01
    -22.080  0.1136E+02  0.3968E+01
    -22.065  0.1169E+02  0.4133E+01
    -22.051  0.1198E+02  0.4302E+01
    -22.037  0.1225E+02  0.4476E+01
    -22.023  0.1250E+02  0.4652E+01
    -22.009  0.1274E+02  0.4833E+01
    -21.995  0.1298E+02  0.5016E+01
    -21.981  0.1321E+02  0.5203E+01
    -21.966  0.1346E+02  0.5393E+01
    -21.952  0.1373E+02  0.5587E+01
    -21.938  0.1403E+02  0.5785E+01
    -21.924  0.1437E+02  0.5989E+01
    -21.910  0.1474E+02  0.6197E+01
    -21.896  0.1516E+02  0.6411E+01
    -21.882  0.1562E+02  0.6632E+01
    -21.868  0.1613E+02  0.6860E+01
    -21.853  0.1668E+02  0.7096E+01
    -21.839  0.1726E+02  0.7340E+01
    -21.825  0.1788E+02  0.7592E+01
    -21.811  0.1853E+02  0.7854E+01
    -21.797  0.1919E+02  0.8125E+01
    -21.783  0.1986E+02  0.8406E+01
    -21.769  0.2053E+02  0.8696E+01
    -21.754  0.2120E+02  0.8996E+01
    -21.740  0.2184E+02  0.9305E+01
    -21.726  0.2247E+02  0.9622E+01
    -21.712  0.2306E+02  0.9948E+01
    -21.698  0.2361E+02  0.1028E+02
    -21.684  0.2412E+02  0.1062E+02
    -21.670  0.2459E+02  0.1097E+02
    -21.656  0.2502E+02  0.1132E+02
    -21.641  0.2539E+02  0.1168E+02
    -21.627  0.2572E+02  0.1205E+02
    -21.613  0.2601E+02  0.1241E+02
    -21.599  0.2626E+02  0.1279E+02
    -21.585  0.2648E+02  0.1316E+02
    -21.571  0.2666E+02  0.1354E+02
    -21.557  0.2682E+02  0.1392E+02
    -21.542  0.2696E+02  0.1430E+02
    -21.528  0.2709E+02  0.1468E+02
    -21.514  0.2721E+02  0.1506E+02
    -21.500  0.2732E+02  0.1545E+02
    -21.486  0.2745E+02  0.1584E+02
    -21.472  0.2758E+02  0.1623E+02
    -21.458  0.2772E+02  0.1662E+02
    -21.444  0.2788E+02  0.1701E+02
    -21.429  0.2805E+02  0.1741E+02
    -21.415  0.2824E+02  0.1781E+02
    -21.401  0.2846E+02  0.1821E+02
    -21.387  0.2869E+02  0.1862E+02
    -21.373  0.2894E+02  0.1903E+02
    -21.359  0.2920E+02  0.1944E+02
    -21.345  0.2947E+02  0.1985E+02
    -21.330  0.2975E+02  0.2028E+02
    -21.316  0.3002E+02  0.2070E+02
    -21.302  0.3029E+02  0.2113E+02
    -21.288  0.3055E+02  0.2156E+02
    -21.274  0.3079E+02  0.2199E+02
    -21.260  0.3100E+02  0.2243E+02
    -21.246  0.3117E+02  0.2287E+02
    -21.231  0.3132E+02  0.2332E+02
    -21.217  0.3141E+02  0.2376E+02
    -21.203  0.3147E+02  0.2420E+02
    -21.189  0.3147E+02  0.2465E+02
    -21.175  0.3143E+02  0.2509E+02
    -21.161  0.3134E+02  0.2554E+02
    -21.147  0.3121E+02  0.2598E+02
    -21.133  0.3103E+02  0.2642E+02
    -21.118  0.3082E+02  0.2685E+02
    -21.104  0.3059E+02  0.2728E+02
    -21.090  0.3032E+02  0.2771E+02
    -21.076  0.3005E+02  0.2814E+02
    -21.062  0.2977E+02  0.2856E+02
    -21.048  0.2948E+02  0.2898E+02
    -21.034  0.2921E+02  0.2939E+02
    -21.019  0.2895E+02  0.2980E+02
    -21.005  0.2870E+02  0.3020E+02
    -20.991  0.2848E+02  0.3061E+02
    -20.977  0.2829E+02  0.3101E+02
    -20.963  0.2813E+02  0.3140E+02
    -20.949  0.2800E+02  0.3180E+02
    -20.935  0.2791E+02  0.3219E+02
    -20.921  0.2784E+02  0.3259E+02
    -20.906  0.2780E+02  0.3298E+02
    -20.892  0.2779E+02  0.3337E+02
    -20.878  0.2781E+02  0.3377E+02
    -20.864  0.2785E+02  0.3416E+02
    -20.850  0.2790E+02  0.3455E+02
    -20.836  0.2797E+02  0.3495E+02
    -20.822  0.2805E+02  0.3535E+02
    -20.807  0.2813E+02  0.3574E+02
    -20.793  0.2822E+02  0.3614E+02
    -20.779  0.2830E+02  0.3654E+02
    -20.765  0.2838E+02  0.3694E+02
    -20.751  0.2845E+02  0.3734E+02
    -20.737  0.2851E+02  0.3775E+02
    -20.723  0.2856E+02  0.3815E+02
    -20.709  0.2859E+02  0.3856E+02
    -20.694  0.2862E+02  0.3896E+02
    -20.680  0.2863E+02  0.3936E+02
    -20.666  0.2864E+02  0.3977E+02
    -20.652  0.2863E+02  0.4017E+02
    -20.638  0.2862E+02  0.4058E+02
    -20.624  0.2860E+02  0.4098E+02
    -20.610  0.2857E+02  0.4139E+02
    -20.595  0.2855E+02  0.4179E+02
    -20.581  0.2852E+02  0.4219E+02
    -20.567  0.2849E+02  0.4260E+02
    -20.553  0.2847E+02  0.4300E+02
    -20.539  0.2844E+02  0.4340E+02
    -20.525  0.2842E+02  0.4380E+02
    -20.511  0.2840E+02  0.4420E+02
    -20.497  0.2838E+02  0.4460E+02
    -20.482  0.2837E+02  0.4501E+02
    -20.468  0.2836E+02  0.4541E+02
    -20.454  0.2836E+02  0.4581E+02
    -20.440  0.2836E+02  0.4621E+02
    -20.426  0.2836E+02  0.4661E+02
    -20.412  0.2837E+02  0.4701E+02
    -20.398  0.2839E+02  0.4741E+02
    -20.383  0.2842E+02  0.4781E+02
    -20.369  0.2846E+02  0.4822E+02
    -20.355  0.2851E+02  0.4862E+02
    -20.341  0.2857E+02  0.4902E+02
    -20.327  0.2865E+02  0.4943E+02
    -20.313  0.2873E+02  0.4983E+02
    -20.299  0.2884E+02  0.5024E+02
    -20.285  0.2896E+02  0.5065E+02
    -20.270  0.2909E+02  0.5106E+02
    -20.256  0.2923E+02  0.5147E+02
    -20.242  0.2939E+02  0.5189E+02
    -20.228  0.2955E+02  0.5231E+02
    -20.214  0.2972E+02  0.5273E+02
    -20.200  0.2989E+02  0.5315E+02
    -20.186  0.3007E+02  0.5357E+02
    -20.171  0.3024E+02  0.5400E+02
    -20.157  0.3041E+02  0.5443E+02
    -20.143  0.3057E+02  0.5486E+02
    -20.129  0.3072E+02  0.5530E+02
    -20.115  0.3087E+02  0.5573E+02
    -20.101  0.3100E+02  0.5617E+02
    -20.087  0.3112E+02  0.5661E+02
    -20.073  0.3123E+02  0.5705E+02
    -20.058  0.3133E+02  0.5750E+02
    -20.044  0.3141E+02  0.5794E+02
    -20.030  0.3148E+02  0.5839E+02
    -20.016  0.3154E+02  0.5883E+02
    -20.002  0.3159E+02  0.5928E+02
    -19.988  0.3163E+02  0.5972E+02
    -19.974  0.3166E+02  0.6017E+02
    -19.959  0.3168E+02  0.6062E+02
    -19.945  0.3169E+02  0.6107E+02
    -19.931  0.3170E+02  0.6152E+02
    -19.917  0.3170E+02  0.6196E+02
    -19.903  0.3169E+02  0.6241E+02
    -19.889  0.3167E+02  0.6286E+02
    -19.875  0.3164E+02  0.6331E+02
    -19.860  0.3160E+02  0.6375E+02
    -19.846  0.3154E+02  0.6420E+02
    -19.832  0.3146E+02  0.6464E+02
    -19.818  0.3136E+02  0.6509E+02
    -19.804  0.3124E+02  0.6553E+02
    -19.790  0.3109E+02  0.6597E+02
    -19.776  0.3091E+02  0.6640E+02
    -19.762  0.3070E+02  0.6684E+02
    -19.747  0.3047E+02  0.6727E+02
    -19.733  0.3020E+02  0.6770E+02
    -19.719  0.2990E+02  0.6812E+02
    -19.705  0.2957E+02  0.6854E+02
    -19.691  0.2921E+02  0.6895E+02
    -19.677  0.2882E+02  0.6936E+02
    -19.663  0.2841E+02  0.6976E+02
    -19.648  0.2799E+02  0.7015E+02
    -19.634  0.2754E+02  0.7054E+02
    -19.620  0.2709E+02  0.7093E+02
    -19.606  0.2664E+02  0.7130E+02
    -19.592  0.2619E+02  0.7167E+02
    -19.578  0.2575E+02  0.7204E+02
    -19.564  0.2532E+02  0.7239E+02
    -19.550  0.2492E+02  0.7275E+02
    -19.535  0.2455E+02  0.7309E+02
    -19.521  0.2422E+02  0.7344E+02
    -19.507  0.2393E+02  0.7377E+02
    -19.493  0.2369E+02  0.7411E+02
    -19.479  0.2350E+02  0.7444E+02
    -19.465  0.2337E+02  0.7477E+02
    -19.451  0.2331E+02  0.7510E+02
    -19.436  0.2331E+02  0.7543E+02
    -19.422  0.2338E+02  0.7576E+02
    -19.408  0.2352E+02  0.7609E+02
    -19.394  0.2371E+02  0.7643E+02
    -19.380  0.2398E+02  0.7677E+02
    -19.366  0.2429E+02  0.7711E+02
    -19.352  0.2466E+02  0.7746E+02
    -19.338  0.2508E+02  0.7781E+02
    -19.323  0.2553E+02  0.7817E+02
    -19.309  0.2601E+02  0.7854E+02
    -19.295  0.2652E+02  0.7892E+02
    -19.281  0.2703E+02  0.7930E+02
    -19.267  0.2755E+02  0.7969E+02
    -19.253  0.2806E+02  0.8009E+02
    -19.239  0.2856E+02  0.8049E+02
    -19.224  0.2904E+02  0.8090E+02
    -19.210  0.2949E+02  0.8132E+02
    -19.196  0.2991E+02  0.8174E+02
    -19.182  0.3029E+02  0.8217E+02
    -19.168  0.3063E+02  0.8260E+02
    -19.154  0.3093E+02  0.8304E+02
    -19.140  0.3118E+02  0.8348E+02
    -19.126  0.3140E+02  0.8392E+02
    -19.111  0.3157E+02  0.8437E+02
    -19.097  0.3171E+02  0.8482E+02
    -19.083  0.3181E+02  0.8527E+02
    -19.069  0.3188E+02  0.8572E+02
    -19.055  0.3193E+02  0.8617E+02
    -19.041  0.3195E+02  0.8662E+02
    -19.027  0.3196E+02  0.8707E+02
    -19.012  0.3197E+02  0.8752E+02
    -18.998  0.3196E+02  0.8797E+02
    -18.984  0.3195E+02  0.8843E+02
    -18.970  0.3195E+02  0.8888E+02
    -18.956  0.3194E+02  0.8933E+02
    -18.942  0.3195E+02  0.8978E+02
    -18.928  0.3195E+02  0.9023E+02
    -18.914  0.3196E+02  0.9068E+02
    -18.899  0.3198E+02  0.9114E+02
    -18.885  0.3199E+02  0.9159E+02
    -18.871  0.3201E+02  0.9204E+02
    -18.857  0.3202E+02  0.9249E+02
    -18.843  0.3202E+02  0.9295E+02
    -18.829  0.3201E+02  0.9340E+02
    -18.815  0.3199E+02  0.9385E+02
    -18.800  0.3195E+02  0.9430E+02
    -18.786  0.3190E+02  0.9475E+02
    -18.772  0.3182E+02  0.9520E+02
    -18.758  0.3172E+02  0.9565E+02
    -18.744  0.3160E+02  0.9610E+02
    -18.730  0.3146E+02  0.9654E+02
    -18.716  0.3130E+02  0.9698E+02
    -18.702  0.3112E+02  0.9742E+02
    -18.687  0.3093E+02  0.9786E+02
    -18.673  0.3073E+02  0.9830E+02
    -18.659  0.3052E+02  0.9873E+02
    -18.645  0.3030E+02  0.9916E+02
    -18.631  0.3009E+02  0.9958E+02
    -18.617  0.2987E+02  0.1000E+03
    -18.603  0.2966E+02  0.1004E+03
    -18.588  0.2946E+02  0.1008E+03
    -18.574  0.2927E+02  0.1013E+03
    -18.560  0.2909E+02  0.1017E+03
    -18.546  0.2893E+02  0.1021E+03
    -18.532  0.2879E+02  0.1025E+03
    -18.518  0.2868E+02  0.1029E+03
    -18.504  0.2859E+02  0.1033E+03
    -18.490  0.2852E+02  0.1037E+03
    -18.475  0.2849E+02  0.1041E+03
    -18.461  0.2848E+02  0.1045E+03
    -18.447  0.2851E+02  0.1049E+03
    -18.433  0.2856E+02  0.1053E+03
    -18.419  0.2865E+02  0.1057E+03
    -18.405  0.2877E+02  0.1061E+03
    -18.391  0.2892E+02  0.1065E+03
    -18.376  0.2910E+02  0.1069E+03
    -18.362  0.2931E+02  0.1073E+03
    -18.348  0.2953E+02  0.1078E+03
    -18.334  0.2978E+02  0.1082E+03
    -18.320  0.3004E+02  0.1086E+03
    -18.306  0.3030E+02  0.1090E+03
    -18.292  0.3058E+02  0.1095E+03
    -18.277  0.3085E+02  0.1099E+03
    -18.263  0.3113E+02  0.1103E+03
    -18.249  0.3139E+02  0.1108E+03
    -18.235  0.3164E+02  0.1112E+03
    -18.221  0.3189E+02  0.1117E+03
    -18.207  0.3211E+02  0.1121E+03
    -18.193  0.3232E+02  0.1126E+03
    -18.179  0.3251E+02  0.1131E+03
    -18.164  0.3268E+02  0.1135E+03
    -18.150  0.3284E+02  0.1140E+03
    -18.136  0.3297E+02  0.1145E+03
    -18.122  0.3309E+02  0.1149E+03
    -18.108  0.3318E+02  0.1154E+03
    -18.094  0.3327E+02  0.1159E+03
    -18.080  0.3333E+02  0.1163E+03
    -18.065  0.3338E+02  0.1168E+03
    -18.051  0.3342E+02  0.1173E+03
    -18.037  0.3344E+02  0.1177E+03
    -18.023  0.3346E+02  0.1182E+03
    -18.009  0.3346E+02  0.1187E+03
    -17.995  0.3345E+02  0.1192E+03
    -17.981  0.3343E+02  0.1196E+03
    -17.967  0.3341E+02  0.1201E+03
    -17.952  0.3338E+02  0.1206E+03
    -17.938  0.3334E+02  0.1211E+03
    -17.924  0.3329E+02  0.1215E+03
    -17.910  0.3324E+02  0.1220E+03
    -17.896  0.3318E+02  0.1225E+03
    -17.882  0.3312E+02  0.1229E+03
    -17.868  0.3306E+02  0.1234E+03
    -17.853  0.3299E+02  0.1239E+03
    -17.839  0.3292E+02  0.1243E+03
    -17.825  0.3284E+02  0.1248E+03
    -17.811  0.3276E+02  0.1253E+03
    -17.797  0.3268E+02  0.1257E+03
    -17.783  0.3259E+02  0.1262E+03
    -17.769  0.3251E+02  0.1266E+03
    -17.755  0.3242E+02  0.1271E+03
    -17.740  0.3233E+02  0.1276E+03
    -17.726  0.3225E+02  0.1280E+03
    -17.712  0.3216E+02  0.1285E+03
    -17.698  0.3208E+02  0.1289E+03
    -17.684  0.3200E+02  0.1294E+03
    -17.670  0.3193E+02  0.1298E+03
    -17.656  0.3187E+02  0.1303E+03
    -17.641  0.3182E+02  0.1307E+03
    -17.627  0.3177E+02  0.1312E+03
    -17.613  0.3174E+02  0.1316E+03
    -17.599  0.3172E+02  0.1321E+03
    -17.585  0.3172E+02  0.1325E+03
    -17.571  0.3173E+02  0.1330E+03
    -17.557  0.3175E+02  0.1334E+03
    -17.543  0.3179E+02  0.1339E+03
    -17.528  0.3185E+02  0.1343E+03
    -17.514  0.3192E+02  0.1348E+03
    -17.500  0.3201E+02  0.1352E+03
    -17.486  0.3210E+02  0.1357E+03
    -17.472  0.3221E+02  0.1361E+03
    -17.458  0.3233E+02  0.1366E+03
    -17.444  0.3245E+02  0.1370E+03
    -17.429  0.3257E+02  0.1375E+03
    -17.415  0.3269E+02  0.1380E+03
    -17.401  0.3282E+02  0.1384E+03
    -17.387  0.3293E+02  0.1389E+03
    -17.373  0.3304E+02  0.1394E+03
    -17.359  0.3313E+02  0.1398E+03
    -17.345  0.3320E+02  0.1403E+03
    -17.331  0.3326E+02  0.1408E+03
    -17.316  0.3330E+02  0.1412E+03
    -17.302  0.3332E+02  0.1417E+03
    -17.288  0.3331E+02  0.1422E+03
    -17.274  0.3328E+02  0.1427E+03
    -17.260  0.3322E+02  0.1431E+03
    -17.246  0.3315E+02  0.1436E+03
    -17.232  0.3304E+02  0.1441E+03
    -17.217  0.3292E+02  0.1445E+03
    -17.203  0.3278E+02  0.1450E+03
    -17.189  0.3263E+02  0.1454E+03
    -17.175  0.3246E+02  0.1459E+03
    -17.161  0.3228E+02  0.1464E+03
    -17.147  0.3209E+02  0.1468E+03
    -17.133  0.3190E+02  0.1473E+03
    -17.119  0.3170E+02  0.1477E+03
    -17.104  0.3151E+02  0.1482E+03
    -17.090  0.3132E+02  0.1486E+03
    -17.076  0.3114E+02  0.1490E+03
    -17.062  0.3097E+02  0.1495E+03
    -17.048  0.3080E+02  0.1499E+03
    -17.034  0.3064E+02  0.1503E+03
    -17.020  0.3049E+02  0.1508E+03
    -17.005  0.3035E+02  0.1512E+03
    -16.991  0.3022E+02  0.1516E+03
    -16.977  0.3010E+02  0.1521E+03
    -16.963  0.2998E+02  0.1525E+03
    -16.949  0.2987E+02  0.1529E+03
    -16.935  0.2977E+02  0.1533E+03
    -16.921  0.2966E+02  0.1537E+03
    -16.906  0.2956E+02  0.1542E+03
    -16.892  0.2945E+02  0.1546E+03
    -16.878  0.2934E+02  0.1550E+03
    -16.864  0.2923E+02  0.1554E+03
    -16.850  0.2912E+02  0.1558E+03
    -16.836  0.2900E+02  0.1562E+03
    -16.822  0.2888E+02  0.1566E+03
    -16.808  0.2876E+02  0.1570E+03
    -16.793  0.2863E+02  0.1574E+03
    -16.779  0.2850E+02  0.1579E+03
    -16.765  0.2838E+02  0.1583E+03
    -16.751  0.2826E+02  0.1587E+03
    -16.737  0.2815E+02  0.1590E+03
    -16.723  0.2805E+02  0.1594E+03
    -16.709  0.2796E+02  0.1598E+03
    -16.694  0.2789E+02  0.1602E+03
    -16.680  0.2784E+02  0.1606E+03
    -16.666  0.2781E+02  0.1610E+03
    -16.652  0.2780E+02  0.1614E+03
    -16.638  0.2781E+02  0.1618E+03
    -16.624  0.2784E+02  0.1622E+03
    -16.610  0.2789E+02  0.1626E+03
    -16.596  0.2796E+02  0.1630E+03
    -16.581  0.2804E+02  0.1634E+03
    -16.567  0.2814E+02  0.1638E+03
    -16.553  0.2824E+02  0.1642E+03
    -16.539  0.2834E+02  0.1646E+03
    -16.525  0.2845E+02  0.1650E+03
    -16.511  0.2855E+02  0.1654E+03
    -16.497  0.2865E+02  0.1658E+03
    -16.482  0.2874E+02  0.1662E+03
    -16.468  0.2882E+02  0.1666E+03
    -16.454  0.2889E+02  0.1670E+03
    -16.440  0.2895E+02  0.1674E+03
    -16.426  0.2900E+02  0.1678E+03
    -16.412  0.2903E+02  0.1682E+03
    -16.398  0.2906E+02  0.1687E+03
    -16.384  0.2908E+02  0.1691E+03
    -16.369  0.2909E+02  0.1695E+03
    -16.355  0.2910E+02  0.1699E+03
    -16.341  0.2912E+02  0.1703E+03
    -16.327  0.2913E+02  0.1707E+03
    -16.313  0.2915E+02  0.1711E+03
    -16.299  0.2917E+02  0.1715E+03
    -16.285  0.2921E+02  0.1720E+03
    -16.270  0.2926E+02  0.1724E+03
    -16.256  0.2932E+02  0.1728E+03
    -16.242  0.2939E+02  0.1732E+03
    -16.228  0.2948E+02  0.1736E+03
    -16.214  0.2959E+02  0.1740E+03
    -16.200  0.2971E+02  0.1744E+03
    -16.186  0.2984E+02  0.1749E+03
    -16.172  0.3000E+02  0.1753E+03
    -16.157  0.3016E+02  0.1757E+03
    -16.143  0.3034E+02  0.1762E+03
    -16.129  0.3052E+02  0.1766E+03
    -16.115  0.3071E+02  0.1770E+03
    -16.101  0.3091E+02  0.1775E+03
    -16.087  0.3110E+02  0.1779E+03
    -16.073  0.3130E+02  0.1783E+03
    -16.058  0.3148E+02  0.1788E+03
    -16.044  0.3166E+02  0.1792E+03
    -16.030  0.3182E+02  0.1797E+03
    -16.016  0.3196E+02  0.1801E+03
    -16.002  0.3208E+02  0.1806E+03
    -15.988  0.3218E+02  0.1810E+03
    -15.974  0.3225E+02  0.1815E+03
    -15.960  0.3229E+02  0.1819E+03
    -15.945  0.3230E+02  0.1824E+03
    -15.931  0.3228E+02  0.1829E+03
    -15.917  0.3223E+02  0.1833E+03
    -15.903  0.3215E+02  0.1838E+03
    -15.889  0.3205E+02  0.1842E+03
    -15.875  0.3193E+02  0.1847E+03
    -15.861  0.3178E+02  0.1851E+03
    -15.846  0.3163E+02  0.1856E+03
    -15.832  0.3146E+02  0.1860E+03
    -15.818  0.3129E+02  0.1865E+03
    -15.804  0.3113E+02  0.1869E+03
    -15.790  0.3097E+02  0.1873E+03
    -15.776  0.3083E+02  0.1878E+03
    -15.762  0.3072E+02  0.1882E+03
    -15.748  0.3062E+02  0.1886E+03
    -15.733  0.3056E+02  0.1891E+03
    -15.719  0.3052E+02  0.1895E+03
    -15.705  0.3052E+02  0.1899E+03
    -15.691  0.3056E+02  0.1904E+03
    -15.677  0.3062E+02  0.1908E+03
    -15.663  0.3072E+02  0.1912E+03
    -15.649  0.3084E+02  0.1917E+03
    -15.634  0.3099E+02  0.1921E+03
    -15.620  0.3115E+02  0.1925E+03
    -15.606  0.3132E+02  0.1930E+03
    -15.592  0.3150E+02  0.1934E+03
    -15.578  0.3167E+02  0.1939E+03
    -15.564  0.3183E+02  0.1943E+03
    -15.550  0.3197E+02  0.1948E+03
    -15.535  0.3208E+02  0.1952E+03
    -15.521  0.3217E+02  0.1957E+03
    -15.507  0.3223E+02  0.1961E+03
    -15.493  0.3225E+02  0.1966E+03
    -15.479  0.3224E+02  0.1971E+03
    -15.465  0.3219E+02  0.1975E+03
    -15.451  0.3210E+02  0.1980E+03
    -15.437  0.3199E+02  0.1984E+03
    -15.422  0.3185E+02  0.1989E+03
    -15.408  0.3169E+02  0.1993E+03
    -15.394  0.3152E+02  0.1998E+03
    -15.380  0.3135E+02  0.2002E+03
    -15.366  0.3117E+02  0.2006E+03
    -15.352  0.3100E+02  0.2011E+03
    -15.338  0.3085E+02  0.2015E+03
    -15.323  0.3072E+02  0.2020E+03
    -15.309  0.3062E+02  0.2024E+03
    -15.295  0.3055E+02  0.2028E+03
    -15.281  0.3051E+02  0.2033E+03
    -15.267  0.3052E+02  0.2037E+03
    -15.253  0.3056E+02  0.2041E+03
    -15.239  0.3064E+02  0.2045E+03
    -15.225  0.3075E+02  0.2050E+03
    -15.210  0.3089E+02  0.2054E+03
    -15.196  0.3106E+02  0.2059E+03
    -15.182  0.3125E+02  0.2063E+03
    -15.168  0.3146E+02  0.2067E+03
    -15.154  0.3167E+02  0.2072E+03
    -15.140  0.3188E+02  0.2076E+03
    -15.126  0.3209E+02  0.2081E+03
    -15.111  0.3228E+02  0.2086E+03
    -15.097  0.3246E+02  0.2090E+03
    -15.083  0.3262E+02  0.2095E+03
    -15.069  0.3275E+02  0.2099E+03
    -15.055  0.3287E+02  0.2104E+03
    -15.041  0.3295E+02  0.2109E+03
    -15.027  0.3301E+02  0.2113E+03
    -15.013  0.3305E+02  0.2118E+03
    -14.998  0.3307E+02  0.2123E+03
    -14.984  0.3307E+02  0.2127E+03
    -14.970  0.3306E+02  0.2132E+03
    -14.956  0.3304E+02  0.2137E+03
    -14.942  0.3301E+02  0.2141E+03
    -14.928  0.3297E+02  0.2146E+03
    -14.914  0.3293E+02  0.2151E+03
    -14.899  0.3289E+02  0.2155E+03
    -14.885  0.3285E+02  0.2160E+03
    -14.871  0.3280E+02  0.2165E+03
    -14.857  0.3276E+02  0.2169E+03
    -14.843  0.3271E+02  0.2174E+03
    -14.829  0.3266E+02  0.2178E+03
    -14.815  0.3260E+02  0.2183E+03
    -14.801  0.3253E+02  0.2188E+03
    -14.786  0.3244E+02  0.2192E+03
    -14.772  0.3234E+02  0.2197E+03
    -14.758  0.3223E+02  0.2201E+03
    -14.744  0.3209E+02  0.2206E+03
    -14.730  0.3194E+02  0.2210E+03
    -14.716  0.3178E+02  0.2215E+03
    -14.702  0.3160E+02  0.2219E+03
    -14.687  0.3140E+02  0.2224E+03
    -14.673  0.3121E+02  0.2228E+03
    -14.659  0.3100E+02  0.2233E+03
    -14.645  0.3080E+02  0.2237E+03
    -14.631  0.3061E+02  0.2241E+03
    -14.617  0.3043E+02  0.2246E+03
    -14.603  0.3026E+02  0.2250E+03
    -14.589  0.3012E+02  0.2254E+03
    -14.574  0.3000E+02  0.2258E+03
    -14.560  0.2990E+02  0.2263E+03
    -14.546  0.2984E+02  0.2267E+03
    -14.532  0.2980E+02  0.2271E+03
    -14.518  0.2979E+02  0.2275E+03
    -14.504  0.2981E+02  0.2279E+03
    -14.490  0.2985E+02  0.2284E+03
    -14.475  0.2991E+02  0.2288E+03
    -14.461  0.2999E+02  0.2292E+03
    -14.447  0.3009E+02  0.2296E+03
    -14.433  0.3019E+02  0.2301E+03
    -14.419  0.3030E+02  0.2305E+03
    -14.405  0.3040E+02  0.2309E+03
    -14.391  0.3051E+02  0.2314E+03
    -14.377  0.3061E+02  0.2318E+03
    -14.362  0.3071E+02  0.2322E+03
    -14.348  0.3079E+02  0.2327E+03
    -14.334  0.3087E+02  0.2331E+03
    -14.320  0.3094E+02  0.2335E+03
    -14.306  0.3101E+02  0.2340E+03
    -14.292  0.3107E+02  0.2344E+03
    -14.278  0.3113E+02  0.2348E+03
    -14.263  0.3118E+02  0.2353E+03
    -14.249  0.3124E+02  0.2357E+03
    -14.235  0.3129E+02  0.2362E+03
    -14.221  0.3134E+02  0.2366E+03
    -14.207  0.3140E+02  0.2371E+03
    -14.193  0.3146E+02  0.2375E+03
    -14.179  0.3151E+02  0.2379E+03
    -14.164  0.3157E+02  0.2384E+03
    -14.150  0.3162E+02  0.2388E+03
    -14.136  0.3167E+02  0.2393E+03
    -14.122  0.3171E+02  0.2397E+03
    -14.108  0.3175E+02  0.2402E+03
    -14.094  0.3177E+02  0.2406E+03
    -14.080  0.3179E+02  0.2411E+03
    -14.066  0.3180E+02  0.2415E+03
    -14.051  0.3180E+02  0.2420E+03
    -14.037  0.3178E+02  0.2424E+03
    -14.023  0.3176E+02  0.2429E+03
    -14.009  0.3173E+02  0.2433E+03
    -13.995  0.3169E+02  0.2438E+03
    -13.981  0.3165E+02  0.2442E+03
    -13.967  0.3161E+02  0.2447E+03
    -13.952  0.3157E+02  0.2451E+03
    -13.938  0.3153E+02  0.2456E+03
    -13.924  0.3150E+02  0.2460E+03
    -13.910  0.3148E+02  0.2465E+03
    -13.896  0.3147E+02  0.2469E+03
    -13.882  0.3147E+02  0.2473E+03
    -13.868  0.3148E+02  0.2478E+03
    -13.854  0.3150E+02  0.2482E+03
    -13.839  0.3154E+02  0.2487E+03
    -13.825  0.3160E+02  0.2491E+03
    -13.811  0.3166E+02  0.2496E+03
    -13.797  0.3174E+02  0.2500E+03
    -13.783  0.3182E+02  0.2505E+03
    -13.769  0.3191E+02  0.2509E+03
    -13.755  0.3200E+02  0.2514E+03
    -13.740  0.3209E+02  0.2518E+03
    -13.726  0.3218E+02  0.2523E+03
    -13.712  0.3227E+02  0.2527E+03
    -13.698  0.3235E+02  0.2532E+03
    -13.684  0.3243E+02  0.2537E+03
    -13.670  0.3249E+02  0.2541E+03
    -13.656  0.3255E+02  0.2546E+03
    -13.642  0.3260E+02  0.2550E+03
    -13.627  0.3263E+02  0.2555E+03
    -13.613  0.3266E+02  0.2560E+03
    -13.599  0.3268E+02  0.2564E+03
    -13.585  0.3269E+02  0.2569E+03
    -13.571  0.3269E+02  0.2573E+03
    -13.557  0.3269E+02  0.2578E+03
    -13.543  0.3269E+02  0.2583E+03
    -13.528  0.3268E+02  0.2587E+03
    -13.514  0.3268E+02  0.2592E+03
    -13.500  0.3268E+02  0.2597E+03
    -13.486  0.3268E+02  0.2601E+03
    -13.472  0.3268E+02  0.2606E+03
    -13.458  0.3268E+02  0.2610E+03
    -13.444  0.3270E+02  0.2615E+03
    -13.430  0.3271E+02  0.2620E+03
    -13.415  0.3274E+02  0.2624E+03
    -13.401  0.3277E+02  0.2629E+03
    -13.387  0.3280E+02  0.2634E+03
    -13.373  0.3285E+02  0.2638E+03
    -13.359  0.3290E+02  0.2643E+03
    -13.345  0.3295E+02  0.2647E+03
    -13.331  0.3302E+02  0.2652E+03
    -13.316  0.3309E+02  0.2657E+03
    -13.302  0.3317E+02  0.2662E+03
    -13.288  0.3326E+02  0.2666E+03
    -13.274  0.3336E+02  0.2671E+03
    -13.260  0.3347E+02  0.2676E+03
    -13.246  0.3359E+02  0.2680E+03
    -13.232  0.3371E+02  0.2685E+03
    -13.218  0.3385E+02  0.2690E+03
    -13.203  0.3399E+02  0.2695E+03
    -13.189  0.3414E+02  0.2700E+03
    -13.175  0.3429E+02  0.2704E+03
    -13.161  0.3444E+02  0.2709E+03
    -13.147  0.3460E+02  0.2714E+03
    -13.133  0.3476E+02  0.2719E+03
    -13.119  0.3491E+02  0.2724E+03
    -13.104  0.3506E+02  0.2729E+03
    -13.090  0.3521E+02  0.2734E+03
    -13.076  0.3534E+02  0.2739E+03
    -13.062  0.3547E+02  0.2744E+03
    -13.048  0.3558E+02  0.2749E+03
    -13.034  0.3569E+02  0.2754E+03
    -13.020  0.3577E+02  0.2759E+03
    -13.006  0.3585E+02  0.2764E+03
    -12.991  0.3591E+02  0.2769E+03
    -12.977  0.3595E+02  0.2774E+03
    -12.963  0.3598E+02  0.2779E+03
    -12.949  0.3599E+02  0.2785E+03
    -12.935  0.3599E+02  0.2790E+03
    -12.921  0.3598E+02  0.2795E+03
    -12.907  0.3596E+02  0.2800E+03
    -12.892  0.3592E+02  0.2805E+03
    -12.878  0.3588E+02  0.2810E+03
    -12.864  0.3583E+02  0.2815E+03