 138 138   0   0
  0.5293209E+02  0.2125692E-08  0.1718177E-08  0.2000000E-08  0.5000000E-15
  1.000000000000000E-004
  CAR 
 unknown system                          
      3.61481350    -24.13687543 2000     -3.50714632      1.00000000
    -24.137  0.0000E+00  0.0000E+00
    -24.123  0.0000E+00  0.0000E+00
    -24.109  0.0000E+00  0.0000E+00
    -24.095  0.0000E+00  0.0000E+00
    -24.081  0.0000E+00  0.0000E+00
    -24.067  0.0000E+00  0.0000E+00
    -24.054  0.0000E+00  0.0000E+00
    -24.040  0.0000E+00  0.0000E+00
    -24.026  0.0000E+00  0.0000E+00
    -24.012  0.0000E+00  0.0000E+00
    -23.998  0.0000E+00  0.0000E+00
    -23.984  0.0000E+00  0.0000E+00
    -23.970  0.0000E+00  0.0000E+00
    -23.956  0.0000E+00  0.0000E+00
    -23.943  0.0000E+00  0.0000E+00
    -23.929  0.0000E+00  0.0000E+00
    -23.915  0.0000E+00  0.0000E+00
    -23.901  0.0000E+00  0.0000E+00
    -23.887  0.0000E+00  0.0000E+00
    -23.873  0.0000E+00  0.0000E+00
    -23.859  0.0000E+00  0.0000E+00
    -23.845  0.0000E+00  0.0000E+00
    -23.831  0.0000E+00  0.0000E+00
    -23.818  0.0000E+00  0.0000E+00
    -23.804  0.0000E+00  0.0000E+00
    -23.790  0.0000E+00  0.0000E+00
    -23.776  0.0000E+00  0.0000E+00
    -23.762  0.0000E+00  0.0000E+00
    -23.748  0.0000E+00  0.0000E+00
    -23.734  0.0000E+00  0.0000E+00
    -23.720  0.0000E+00  0.0000E+00
    -23.707  0.0000E+00  0.0000E+00
    -23.693  0.0000E+00  0.0000E+00
    -23.679  0.0000E+00  0.0000E+00
    -23.665  0.0000E+00  0.0000E+00
    -23.651  0.0000E+00  0.0000E+00
    -23.637  0.0000E+00  0.0000E+00
    -23.623  0.0000E+00  0.0000E+00
    -23.609  0.0000E+00  0.0000E+00
    -23.595  0.0000E+00  0.0000E+00
    -23.582  0.0000E+00  0.0000E+00
    -23.568  0.0000E+00  0.0000E+00
    -23.554  0.0000E+00  0.0000E+00
    -23.540  0.0000E+00  0.0000E+00
    -23.526  0.0000E+00  0.0000E+00
    -23.512  0.0000E+00  0.0000E+00
    -23.498  0.0000E+00  0.0000E+00
    -23.484  0.0000E+00  0.0000E+00
    -23.471  0.0000E+00  0.0000E+00
    -23.457  0.0000E+00  0.0000E+00
    -23.443  0.0000E+00  0.0000E+00
    -23.429  0.0000E+00  0.0000E+00
    -23.415  0.0000E+00  0.0000E+00
    -23.401  0.0000E+00  0.0000E+00
    -23.387  0.0000E+00  0.0000E+00
    -23.373  0.0000E+00  0.0000E+00
    -23.359  0.0000E+00  0.0000E+00
    -23.346  0.0000E+00  0.0000E+00
    -23.332  0.0000E+00  0.0000E+00
    -23.318  0.2666E-14  0.3701E-16
    -23.304  0.5331E-14  0.1110E-15
    -23.290  0.1066E-13  0.2591E-15
    -23.276  0.1955E-13  0.5304E-15
    -23.262  0.4532E-13  0.1160E-14
    -23.248  0.1004E-12  0.2554E-14
    -23.234  0.2195E-12  0.5600E-14
    -23.221  0.4683E-12  0.1210E-13
    -23.207  0.9970E-12  0.2594E-13
    -23.193  0.2109E-11  0.5522E-13
    -23.179  0.4406E-11  0.1164E-12
    -23.165  0.9117E-11  0.2429E-12
    -23.151  0.1869E-10  0.5025E-12
    -23.137  0.3795E-10  0.1029E-11
    -23.123  0.7632E-10  0.2089E-11
    -23.110  0.1520E-09  0.4199E-11
    -23.096  0.2998E-09  0.8362E-11
    -23.082  0.5858E-09  0.1650E-10
    -23.068  0.1134E-08  0.3223E-10
    -23.054  0.2173E-08  0.6240E-10
    -23.040  0.4124E-08  0.1197E-09
    -23.026  0.7754E-08  0.2273E-09
    -23.012  0.1444E-07  0.4277E-09
    -22.998  0.2663E-07  0.7974E-09
    -22.985  0.4864E-07  0.1473E-08
    -22.971  0.8800E-07  0.2694E-08
    -22.957  0.1577E-06  0.4884E-08
    -22.943  0.2799E-06  0.8769E-08
    -22.929  0.4919E-06  0.1560E-07
    -22.915  0.8564E-06  0.2749E-07
    -22.901  0.1477E-05  0.4799E-07
    -22.887  0.2522E-05  0.8301E-07
    -22.874  0.4266E-05  0.1422E-06
    -22.860  0.7148E-05  0.2415E-06
    -22.846  0.1186E-04  0.4061E-06
    -22.832  0.1949E-04  0.6768E-06
    -22.818  0.3174E-04  0.1117E-05
    -22.804  0.5117E-04  0.1828E-05
    -22.790  0.8171E-04  0.2962E-05
    -22.776  0.1292E-03  0.4756E-05
    -22.762  0.2025E-03  0.7567E-05
    -22.749  0.3142E-03  0.1193E-04
    -22.735  0.4829E-03  0.1863E-04
    -22.721  0.7352E-03  0.2884E-04
    -22.707  0.1109E-02  0.4423E-04
    -22.693  0.1656E-02  0.6721E-04
    -22.679  0.2449E-02  0.1012E-03
    -22.665  0.3589E-02  0.1510E-03
    -22.651  0.5209E-02  0.2234E-03
    -22.638  0.7489E-02  0.3273E-03
    -22.624  0.1066E-01  0.4754E-03
    -22.610  0.1504E-01  0.6842E-03
    -22.596  0.2102E-01  0.9761E-03
    -22.582  0.2910E-01  0.1380E-02
    -22.568  0.3990E-01  0.1934E-02
    -22.554  0.5420E-01  0.2686E-02
    -22.540  0.7293E-01  0.3699E-02
    -22.526  0.9723E-01  0.5049E-02
    -22.513  0.1284E+00  0.6831E-02
    -22.499  0.1680E+00  0.9164E-02
    -22.485  0.2178E+00  0.1219E-01
    -22.471  0.2798E+00  0.1607E-01
    -22.457  0.3561E+00  0.2101E-01
    -22.443  0.4490E+00  0.2725E-01
    -22.429  0.5611E+00  0.3504E-01
    -22.415  0.6949E+00  0.4469E-01
    -22.402  0.8529E+00  0.5653E-01
    -22.388  0.1038E+01  0.7093E-01
    -22.374  0.1251E+01  0.8830E-01
    -22.360  0.1495E+01  0.1091E+00
    -22.346  0.1772E+01  0.1337E+00
    -22.332  0.2082E+01  0.1626E+00
    -22.318  0.2425E+01  0.1962E+00
    -22.304  0.2802E+01  0.2351E+00
    -22.290  0.3211E+01  0.2797E+00
    -22.277  0.3651E+01  0.3304E+00
    -22.263  0.4118E+01  0.3876E+00
    -22.249  0.4609E+01  0.4516E+00
    -22.235  0.5120E+01  0.5226E+00
    -22.221  0.5647E+01  0.6010E+00
    -22.207  0.6185E+01  0.6869E+00
    -22.193  0.6728E+01  0.7803E+00
    -22.179  0.7272E+01  0.8813E+00
    -22.166  0.7811E+01  0.9897E+00
    -22.152  0.8341E+01  0.1106E+01
    -22.138  0.8858E+01  0.1228E+01
    -22.124  0.9359E+01  0.1358E+01
    -22.110  0.9841E+01  0.1495E+01
    -22.096  0.1030E+02  0.1638E+01
    -22.082  0.1075E+02  0.1787E+01
    -22.068  0.1117E+02  0.1942E+01
    -22.054  0.1157E+02  0.2103E+01
    -22.041  0.1196E+02  0.2269E+01
    -22.027  0.1234E+02  0.2440E+01
    -22.013  0.1271E+02  0.2617E+01
    -21.999  0.1308E+02  0.2798E+01
    -21.985  0.1345E+02  0.2985E+01
    -21.971  0.1383E+02  0.3177E+01
    -21.957  0.1422E+02  0.3375E+01
    -21.943  0.1462E+02  0.3578E+01
    -21.930  0.1505E+02  0.3786E+01
    -21.916  0.1549E+02  0.4001E+01
    -21.902  0.1597E+02  0.4223E+01
    -21.888  0.1647E+02  0.4452E+01
    -21.874  0.1699E+02  0.4688E+01
    -21.860  0.1754E+02  0.4931E+01
    -21.846  0.1812E+02  0.5183E+01
    -21.832  0.1871E+02  0.5442E+01
    -21.818  0.1931E+02  0.5711E+01
    -21.805  0.1992E+02  0.5987E+01
    -21.791  0.2053E+02  0.6272E+01
    -21.777  0.2113E+02  0.6566E+01
    -21.763  0.2171E+02  0.6867E+01
    -21.749  0.2227E+02  0.7176E+01
    -21.735  0.2278E+02  0.7492E+01
    -21.721  0.2325E+02  0.7815E+01
    -21.707  0.2367E+02  0.8144E+01
    -21.694  0.2402E+02  0.8477E+01
    -21.680  0.2430E+02  0.8815E+01
    -21.666  0.2450E+02  0.9155E+01
    -21.652  0.2462E+02  0.9497E+01
    -21.638  0.2466E+02  0.9839E+01
    -21.624  0.2461E+02  0.1018E+02
    -21.610  0.2448E+02  0.1052E+02
    -21.596  0.2427E+02  0.1086E+02
    -21.582  0.2398E+02  0.1119E+02
    -21.569  0.2363E+02  0.1152E+02
    -21.555  0.2321E+02  0.1184E+02
    -21.541  0.2275E+02  0.1216E+02
    -21.527  0.2224E+02  0.1247E+02
    -21.513  0.2171E+02  0.1277E+02
    -21.499  0.2115E+02  0.1306E+02
    -21.485  0.2060E+02  0.1335E+02
    -21.471  0.2005E+02  0.1362E+02
    -21.457  0.1952E+02  0.1390E+02
    -21.444  0.1901E+02  0.1416E+02
    -21.430  0.1854E+02  0.1442E+02
    -21.416  0.1812E+02  0.1467E+02
    -21.402  0.1774E+02  0.1491E+02
    -21.388  0.1742E+02  0.1516E+02
    -21.374  0.1715E+02  0.1539E+02
    -21.360  0.1694E+02  0.1563E+02
    -21.346  0.1680E+02  0.1586E+02
    -21.333  0.1671E+02  0.1609E+02
    -21.319  0.1668E+02  0.1633E+02
    -21.305  0.1671E+02  0.1656E+02
    -21.291  0.1679E+02  0.1679E+02
    -21.277  0.1692E+02  0.1703E+02
    -21.263  0.1710E+02  0.1726E+02
    -21.249  0.1732E+02  0.1750E+02
    -21.235  0.1757E+02  0.1775E+02
    -21.221  0.1786E+02  0.1800E+02
    -21.208  0.1817E+02  0.1825E+02
    -21.194  0.1850E+02  0.1850E+02
    -21.180  0.1884E+02  0.1877E+02
    -21.166  0.1919E+02  0.1903E+02
    -21.152  0.1954E+02  0.1930E+02
    -21.138  0.1988E+02  0.1958E+02
    -21.124  0.2022E+02  0.1986E+02
    -21.110  0.2054E+02  0.2015E+02
    -21.097  0.2085E+02  0.2044E+02
    -21.083  0.2113E+02  0.2073E+02
    -21.069  0.2139E+02  0.2103E+02
    -21.055  0.2162E+02  0.2133E+02
    -21.041  0.2183E+02  0.2163E+02
    -21.027  0.2202E+02  0.2193E+02
    -21.013  0.2219E+02  0.2224E+02
    -20.999  0.2234E+02  0.2255E+02
    -20.985  0.2247E+02  0.2286E+02
    -20.972  0.2260E+02  0.2318E+02
    -20.958  0.2271E+02  0.2349E+02
    -20.944  0.2282E+02  0.2381E+02
    -20.930  0.2292E+02  0.2413E+02
    -20.916  0.2302E+02  0.2445E+02
    -20.902  0.2311E+02  0.2477E+02
    -20.888  0.2321E+02  0.2509E+02
    -20.874  0.2330E+02  0.2541E+02
    -20.861  0.2339E+02  0.2574E+02
    -20.847  0.2347E+02  0.2607E+02
    -20.833  0.2354E+02  0.2639E+02
    -20.819  0.2360E+02  0.2672E+02
    -20.805  0.2364E+02  0.2705E+02
    -20.791  0.2367E+02  0.2738E+02
    -20.777  0.2369E+02  0.2771E+02
    -20.763  0.2368E+02  0.2803E+02
    -20.749  0.2366E+02  0.2836E+02
    -20.736  0.2363E+02  0.2869E+02
    -20.722  0.2358E+02  0.2902E+02
    -20.708  0.2351E+02  0.2934E+02
    -20.694  0.2343E+02  0.2967E+02
    -20.680  0.2335E+02  0.2999E+02
    -20.666  0.2326E+02  0.3032E+02
    -20.652  0.2317E+02  0.3064E+02
    -20.638  0.2308E+02  0.3096E+02
    -20.625  0.2299E+02  0.3128E+02
    -20.611  0.2291E+02  0.3160E+02
    -20.597  0.2283E+02  0.3191E+02
    -20.583  0.2276E+02  0.3223E+02
    -20.569  0.2270E+02  0.3254E+02
    -20.555  0.2264E+02  0.3286E+02
    -20.541  0.2259E+02  0.3317E+02
    -20.527  0.2255E+02  0.3349E+02
    -20.513  0.2250E+02  0.3380E+02
    -20.500  0.2246E+02  0.3411E+02
    -20.486  0.2241E+02  0.3442E+02
    -20.472  0.2236E+02  0.3473E+02
    -20.458  0.2231E+02  0.3504E+02
    -20.444  0.2226E+02  0.3535E+02
    -20.430  0.2220E+02  0.3566E+02
    -20.416  0.2214E+02  0.3597E+02
    -20.402  0.2208E+02  0.3627E+02
    -20.389  0.2202E+02  0.3658E+02
    -20.375  0.2196E+02  0.3688E+02
    -20.361  0.2191E+02  0.3719E+02
    -20.347  0.2186E+02  0.3749E+02
    -20.333  0.2182E+02  0.3779E+02
    -20.319  0.2180E+02  0.3810E+02
    -20.305  0.2179E+02  0.3840E+02
    -20.291  0.2179E+02  0.3870E+02
    -20.277  0.2180E+02  0.3900E+02
    -20.264  0.2184E+02  0.3931E+02
    -20.250  0.2189E+02  0.3961E+02
    -20.236  0.2195E+02  0.3992E+02
    -20.222  0.2203E+02  0.4022E+02
    -20.208  0.2212E+02  0.4053E+02
    -20.194  0.2223E+02  0.4084E+02
    -20.180  0.2234E+02  0.4115E+02
    -20.166  0.2247E+02  0.4146E+02
    -20.153  0.2260E+02  0.4177E+02
    -20.139  0.2273E+02  0.4209E+02
    -20.125  0.2286E+02  0.4241E+02
    -20.111  0.2300E+02  0.4272E+02
    -20.097  0.2313E+02  0.4305E+02
    -20.083  0.2326E+02  0.4337E+02
    -20.069  0.2338E+02  0.4369E+02
    -20.055  0.2350E+02  0.4402E+02
    -20.041  0.2361E+02  0.4435E+02
    -20.028  0.2371E+02  0.4468E+02
    -20.014  0.2380E+02  0.4501E+02
    -20.000  0.2388E+02  0.4534E+02
    -19.986  0.2395E+02  0.4567E+02
    -19.972  0.2401E+02  0.4600E+02
    -19.958  0.2405E+02  0.4634E+02
    -19.944  0.2408E+02  0.4667E+02
    -19.930  0.2410E+02  0.4701E+02
    -19.917  0.2410E+02  0.4734E+02
    -19.903  0.2408E+02  0.4768E+02
    -19.889  0.2405E+02  0.4801E+02
    -19.875  0.2400E+02  0.4834E+02
    -19.861  0.2393E+02  0.4868E+02
    -19.847  0.2385E+02  0.4901E+02
    -19.833  0.2375E+02  0.4934E+02
    -19.819  0.2364E+02  0.4966E+02
    -19.805  0.2351E+02  0.4999E+02
    -19.792  0.2338E+02  0.5032E+02
    -19.778  0.2323E+02  0.5064E+02
    -19.764  0.2308E+02  0.5096E+02
    -19.750  0.2292E+02  0.5128E+02
    -19.736  0.2277E+02  0.5159E+02
    -19.722  0.2261E+02  0.5191E+02
    -19.708  0.2246E+02  0.5222E+02
    -19.694  0.2232E+02  0.5253E+02
    -19.681  0.2218E+02  0.5284E+02
    -19.667  0.2206E+02  0.5314E+02
    -19.653  0.2195E+02  0.5345E+02
    -19.639  0.2185E+02  0.5375E+02
    -19.625  0.2177E+02  0.5405E+02
    -19.611  0.2171E+02  0.5435E+02
    -19.597  0.2166E+02  0.5465E+02
    -19.583  0.2163E+02  0.5495E+02
    -19.569  0.2161E+02  0.5525E+02
    -19.556  0.2161E+02  0.5555E+02
    -19.542  0.2162E+02  0.5585E+02
    -19.528  0.2164E+02  0.5616E+02
    -19.514  0.2168E+02  0.5646E+02
    -19.500  0.2172E+02  0.5676E+02
    -19.486  0.2176E+02  0.5706E+02
    -19.472  0.2181E+02  0.5736E+02
    -19.458  0.2186E+02  0.5767E+02
    -19.444  0.2191E+02  0.5797E+02
    -19.431  0.2195E+02  0.5828E+02
    -19.417  0.2199E+02  0.5858E+02
    -19.403  0.2201E+02  0.5889E+02
    -19.389  0.2203E+02  0.5919E+02
    -19.375  0.2203E+02  0.5950E+02
    -19.361  0.2202E+02  0.5980E+02
    -19.347  0.2200E+02  0.6011E+02
    -19.333  0.2196E+02  0.6041E+02
    -19.320  0.2192E+02  0.6072E+02
    -19.306  0.2186E+02  0.6102E+02
    -19.292  0.2179E+02  0.6132E+02
    -19.278  0.2172E+02  0.6163E+02
    -19.264  0.2163E+02  0.6193E+02
    -19.250  0.2154E+02  0.6222E+02
    -19.236  0.2144E+02  0.6252E+02
    -19.222  0.2134E+02  0.6282E+02
    -19.208  0.2123E+02  0.6311E+02
    -19.195  0.2111E+02  0.6341E+02
    -19.181  0.2100E+02  0.6370E+02
    -19.167  0.2088E+02  0.6399E+02
    -19.153  0.2075E+02  0.6428E+02
    -19.139  0.2063E+02  0.6456E+02
    -19.125  0.2050E+02  0.6485E+02
    -19.111  0.2037E+02  0.6513E+02
    -19.097  0.2023E+02  0.6541E+02
    -19.084  0.2010E+02  0.6569E+02
    -19.070  0.1997E+02  0.6597E+02
    -19.056  0.1985E+02  0.6624E+02
    -19.042  0.1973E+02  0.6652E+02
    -19.028  0.1962E+02  0.6679E+02
    -19.014  0.1952E+02  0.6706E+02
    -19.000  0.1943E+02  0.6733E+02
    -18.986  0.1936E+02  0.6760E+02
    -18.972  0.1930E+02  0.6787E+02
    -18.959  0.1926E+02  0.6813E+02
    -18.945  0.1923E+02  0.6840E+02
    -18.931  0.1922E+02  0.6867E+02
    -18.917  0.1923E+02  0.6893E+02
    -18.903  0.1926E+02  0.6920E+02
    -18.889  0.1930E+02  0.6947E+02
    -18.875  0.1935E+02  0.6974E+02
    -18.861  0.1941E+02  0.7001E+02
    -18.848  0.1949E+02  0.7028E+02
    -18.834  0.1956E+02  0.7055E+02
    -18.820  0.1964E+02  0.7082E+02
    -18.806  0.1972E+02  0.7110E+02
    -18.792  0.1980E+02  0.7137E+02
    -18.778  0.1988E+02  0.7165E+02
    -18.764  0.1996E+02  0.7192E+02
    -18.750  0.2003E+02  0.7220E+02
    -18.736  0.2010E+02  0.7248E+02
    -18.723  0.2017E+02  0.7276E+02
    -18.709  0.2024E+02  0.7304E+02
    -18.695  0.2032E+02  0.7332E+02
    -18.681  0.2040E+02  0.7361E+02
    -18.667  0.2050E+02  0.7389E+02
    -18.653  0.2060E+02  0.7418E+02
    -18.639  0.2072E+02  0.7447E+02
    -18.625  0.2086E+02  0.7476E+02
    -18.612  0.2103E+02  0.7505E+02
    -18.598  0.2122E+02  0.7534E+02
    -18.584  0.2143E+02  0.7564E+02
    -18.570  0.2167E+02  0.7594E+02
    -18.556  0.2194E+02  0.7624E+02
    -18.542  0.2224E+02  0.7655E+02
    -18.528  0.2256E+02  0.7687E+02
    -18.514  0.2290E+02  0.7718E+02
    -18.500  0.2326E+02  0.7751E+02
    -18.487  0.2364E+02  0.7784E+02
    -18.473  0.2402E+02  0.7817E+02
    -18.459  0.2442E+02  0.7851E+02
    -18.445  0.2481E+02  0.7885E+02
    -18.431  0.2519E+02  0.7920E+02
    -18.417  0.2557E+02  0.7956E+02
    -18.403  0.2592E+02  0.7992E+02
    -18.389  0.2626E+02  0.8028E+02
    -18.376  0.2657E+02  0.8065E+02
    -18.362  0.2686E+02  0.8102E+02
    -18.348  0.2711E+02  0.8140E+02
    -18.334  0.2733E+02  0.8178E+02
    -18.320  0.2751E+02  0.8216E+02
    -18.306  0.2766E+02  0.8255E+02
    -18.292  0.2777E+02  0.8293E+02
    -18.278  0.2785E+02  0.8332E+02
    -18.264  0.2790E+02  0.8370E+02
    -18.251  0.2791E+02  0.8409E+02
    -18.237  0.2789E+02  0.8448E+02
    -18.223  0.2784E+02  0.8487E+02
    -18.209  0.2777E+02  0.8525E+02
    -18.195  0.2768E+02  0.8564E+02
    -18.181  0.2757E+02  0.8602E+02
    -18.167  0.2744E+02  0.8640E+02
    -18.153  0.2730E+02  0.8678E+02
    -18.140  0.2715E+02  0.8716E+02
    -18.126  0.2699E+02  0.8753E+02
    -18.112  0.2682E+02  0.8790E+02
    -18.098  0.2666E+02  0.8827E+02
    -18.084  0.2649E+02  0.8864E+02
    -18.070  0.2632E+02  0.8901E+02
    -18.056  0.2615E+02  0.8937E+02
    -18.042  0.2599E+02  0.8973E+02
    -18.028  0.2584E+02  0.9009E+02
    -18.015  0.2568E+02  0.9044E+02
    -18.001  0.2554E+02  0.9080E+02
    -17.987  0.2539E+02  0.9115E+02
    -17.973  0.2525E+02  0.9150E+02
    -17.959  0.2512E+02  0.9185E+02
    -17.945  0.2499E+02  0.9220E+02
    -17.931  0.2486E+02  0.9254E+02
    -17.917  0.2474E+02  0.9289E+02
    -17.904  0.2463E+02  0.9323E+02
    -17.890  0.2452E+02  0.9357E+02
    -17.876  0.2442E+02  0.9391E+02
    -17.862  0.2432E+02  0.9425E+02
    -17.848  0.2424E+02  0.9458E+02
    -17.834  0.2417E+02  0.9492E+02
    -17.820  0.2412E+02  0.9525E+02
    -17.806  0.2408E+02  0.9559E+02
    -17.792  0.2406E+02  0.9592E+02
    -17.779  0.2407E+02  0.9626E+02
    -17.765  0.2409E+02  0.9659E+02
    -17.751  0.2415E+02  0.9692E+02
    -17.737  0.2422E+02  0.9726E+02
    -17.723  0.2433E+02  0.9760E+02
    -17.709  0.2446E+02  0.9794E+02
    -17.695  0.2461E+02  0.9828E+02
    -17.681  0.2479E+02  0.9862E+02
    -17.667  0.2499E+02  0.9897E+02
    -17.654  0.2520E+02  0.9932E+02
    -17.640  0.2543E+02  0.9967E+02
    -17.626  0.2567E+02  0.1000E+03
    -17.612  0.2591E+02  0.1004E+03
    -17.598  0.2615E+02  0.1008E+03
    -17.584  0.2639E+02  0.1011E+03
    -17.570  0.2662E+02  0.1015E+03
    -17.556  0.2684E+02  0.1019E+03
    -17.543  0.2703E+02  0.1022E+03
    -17.529  0.2721E+02  0.1026E+03
    -17.515  0.2735E+02  0.1030E+03
    -17.501  0.2747E+02  0.1034E+03
    -17.487  0.2755E+02  0.1038E+03
    -17.473  0.2760E+02  0.1041E+03
    -17.459  0.2761E+02  0.1045E+03
    -17.445  0.2758E+02  0.1049E+03
    -17.431  0.2751E+02  0.1053E+03
    -17.418  0.2741E+02  0.1057E+03
    -17.404  0.2727E+02  0.1060E+03
    -17.390  0.2710E+02  0.1064E+03
    -17.376  0.2690E+02  0.1068E+03
    -17.362  0.2667E+02  0.1072E+03
    -17.348  0.2642E+02  0.1075E+03
    -17.334  0.2616E+02  0.1079E+03
    -17.320  0.2588E+02  0.1083E+03
    -17.307  0.2559E+02  0.1086E+03
    -17.293  0.2529E+02  0.1090E+03
    -17.279  0.2499E+02  0.1093E+03
    -17.265  0.2469E+02  0.1097E+03
    -17.251  0.2439E+02  0.1100E+03
    -17.237  0.2410E+02  0.1103E+03
    -17.223  0.2381E+02  0.1107E+03
    -17.209  0.2352E+02  0.1110E+03
    -17.195  0.2324E+02  0.1113E+03
    -17.182  0.2296E+02  0.1116E+03
    -17.168  0.2269E+02  0.1119E+03
    -17.154  0.2242E+02  0.1123E+03
    -17.140  0.2215E+02  0.1126E+03
    -17.126  0.2189E+02  0.1129E+03
    -17.112  0.2163E+02  0.1132E+03
    -17.098  0.2138E+02  0.1135E+03
    -17.084  0.2113E+02  0.1138E+03
    -17.071  0.2089E+02  0.1140E+03
    -17.057  0.2067E+02  0.1143E+03
    -17.043  0.2045E+02  0.1146E+03
    -17.029  0.2025E+02  0.1149E+03
    -17.015  0.2007E+02  0.1152E+03
    -17.001  0.1991E+02  0.1154E+03
    -16.987  0.1976E+02  0.1157E+03
    -16.973  0.1964E+02  0.1160E+03
    -16.959  0.1954E+02  0.1163E+03
    -16.946  0.1946E+02  0.1165E+03
    -16.932  0.1940E+02  0.1168E+03
    -16.918  0.1936E+02  0.1171E+03
    -16.904  0.1934E+02  0.1173E+03
    -16.890  0.1935E+02  0.1176E+03
    -16.876  0.1937E+02  0.1179E+03
    -16.862  0.1940E+02  0.1182E+03
    -16.848  0.1945E+02  0.1184E+03
    -16.835  0.1951E+02  0.1187E+03
    -16.821  0.1958E+02  0.1190E+03
    -16.807  0.1966E+02  0.1192E+03
    -16.793  0.1974E+02  0.1195E+03
    -16.779  0.1982E+02  0.1198E+03
    -16.765  0.1990E+02  0.1201E+03
    -16.751  0.1998E+02  0.1203E+03
    -16.737  0.2005E+02  0.1206E+03
    -16.723  0.2012E+02  0.1209E+03
    -16.710  0.2018E+02  0.1212E+03
    -16.696  0.2023E+02  0.1215E+03
    -16.682  0.2026E+02  0.1217E+03
    -16.668  0.2029E+02  0.1220E+03
    -16.654  0.2031E+02  0.1223E+03
    -16.640  0.2032E+02  0.1226E+03
    -16.626  0.2032E+02  0.1229E+03
    -16.612  0.2032E+02  0.1231E+03
    -16.599  0.2030E+02  0.1234E+03
    -16.585  0.2029E+02  0.1237E+03
    -16.571  0.2028E+02  0.1240E+03
    -16.557  0.2027E+02  0.1243E+03
    -16.543  0.2026E+02  0.1246E+03
    -16.529  0.2027E+02  0.1248E+03
    -16.515  0.2029E+02  0.1251E+03
    -16.501  0.2032E+02  0.1254E+03
    -16.487  0.2037E+02  0.1257E+03
    -16.474  0.2044E+02  0.1260E+03
    -16.460  0.2052E+02  0.1263E+03
    -16.446  0.2063E+02  0.1265E+03
    -16.432  0.2075E+02  0.1268E+03
    -16.418  0.2088E+02  0.1271E+03
    -16.404  0.2102E+02  0.1274E+03
    -16.390  0.2117E+02  0.1277E+03
    -16.376  0.2133E+02  0.1280E+03
    -16.363  0.2147E+02  0.1283E+03
    -16.349  0.2161E+02  0.1286E+03
    -16.335  0.2173E+02  0.1289E+03
    -16.321  0.2183E+02  0.1292E+03
    -16.307  0.2190E+02  0.1295E+03
    -16.293  0.2195E+02  0.1298E+03
    -16.279  0.2195E+02  0.1301E+03
    -16.265  0.2192E+02  0.1304E+03
    -16.251  0.2185E+02  0.1307E+03
    -16.238  0.2173E+02  0.1310E+03
    -16.224  0.2158E+02  0.1313E+03
    -16.210  0.2139E+02  0.1316E+03
    -16.196  0.2117E+02  0.1319E+03
    -16.182  0.2091E+02  0.1322E+03
    -16.168  0.2064E+02  0.1325E+03
    -16.154  0.2034E+02  0.1328E+03
    -16.140  0.2004E+02  0.1331E+03
    -16.127  0.1973E+02  0.1333E+03
    -16.113  0.1943E+02  0.1336E+03
    -16.099  0.1914E+02  0.1339E+03
    -16.085  0.1887E+02  0.1341E+03
    -16.071  0.1862E+02  0.1344E+03
    -16.057  0.1841E+02  0.1346E+03
    -16.043  0.1823E+02  0.1349E+03
    -16.029  0.1809E+02  0.1351E+03
    -16.015  0.1799E+02  0.1354E+03
    -16.002  0.1794E+02  0.1356E+03
    -15.988  0.1794E+02  0.1359E+03
    -15.974  0.1798E+02  0.1361E+03
    -15.960  0.1807E+02  0.1364E+03
    -15.946  0.1820E+02  0.1366E+03
    -15.932  0.1838E+02  0.1369E+03
    -15.918  0.1861E+02  0.1372E+03
    -15.904  0.1886E+02  0.1374E+03
    -15.891  0.1916E+02  0.1377E+03
    -15.877  0.1948E+02  0.1380E+03
    -15.863  0.1983E+02  0.1382E+03
    -15.849  0.2019E+02  0.1385E+03
    -15.835  0.2057E+02  0.1388E+03
    -15.821  0.2096E+02  0.1391E+03
    -15.807  0.2136E+02  0.1394E+03
    -15.793  0.2175E+02  0.1397E+03
    -15.779  0.2214E+02  0.1400E+03
    -15.766  0.2252E+02  0.1403E+03
    -15.752  0.2288E+02  0.1406E+03
    -15.738  0.2322E+02  0.1409E+03
    -15.724  0.2355E+02  0.1413E+03
    -15.710  0.2385E+02  0.1416E+03
    -15.696  0.2413E+02  0.1419E+03
    -15.682  0.2438E+02  0.1423E+03
    -15.668  0.2460E+02  0.1426E+03
    -15.654  0.2479E+02  0.1430E+03
    -15.641  0.2496E+02  0.1433E+03
    -15.627  0.2511E+02  0.1437E+03
    -15.613  0.2523E+02  0.1440E+03
    -15.599  0.2532E+02  0.1444E+03
    -15.585  0.2540E+02  0.1447E+03
    -15.571  0.2545E+02  0.1451E+03
    -15.557  0.2548E+02  0.1454E+03
    -15.543  0.2550E+02  0.1458E+03
    -15.530  0.2550E+02  0.1461E+03
    -15.516  0.2548E+02  0.1465E+03
    -15.502  0.2544E+02  0.1468E+03
    -15.488  0.2539E+02  0.1472E+03
    -15.474  0.2532E+02  0.1475E+03
    -15.460  0.2523E+02  0.1479E+03
    -15.446  0.2512E+02  0.1482E+03
    -15.432  0.2500E+02  0.1486E+03
    -15.418  0.2486E+02  0.1489E+03
    -15.405  0.2470E+02  0.1493E+03
    -15.391  0.2453E+02  0.1496E+03
    -15.377  0.2434E+02  0.1500E+03
    -15.363  0.2413E+02  0.1503E+03
    -15.349  0.2392E+02  0.1506E+03
    -15.335  0.2370E+02  0.1509E+03
    -15.321  0.2348E+02  0.1513E+03
    -15.307  0.2326E+02  0.1516E+03
    -15.294  0.2305E+02  0.1519E+03
    -15.280  0.2285E+02  0.1522E+03
    -15.266  0.2267E+02  0.1525E+03
    -15.252  0.2252E+02  0.1529E+03
    -15.238  0.2240E+02  0.1532E+03
    -15.224  0.2231E+02  0.1535E+03
    -15.210  0.2226E+02  0.1538E+03
    -15.196  0.2225E+02  0.1541E+03
    -15.182  0.2229E+02  0.1544E+03
    -15.169  0.2237E+02  0.1547E+03
    -15.155  0.2249E+02  0.1550E+03
    -15.141  0.2265E+02  0.1553E+03
    -15.127  0.2284E+02  0.1557E+03
    -15.113  0.2306E+02  0.1560E+03
    -15.099  0.2330E+02  0.1563E+03
    -15.085  0.2356E+02  0.1566E+03
    -15.071  0.2383E+02  0.1570E+03
    -15.058  0.2409E+02  0.1573E+03
    -15.044  0.2435E+02  0.1576E+03
    -15.030  0.2460E+02  0.1580E+03
    -15.016  0.2482E+02  0.1583E+03
    -15.002  0.2501E+02  0.1587E+03
    -14.988  0.2517E+02  0.1590E+03
    -14.974  0.2529E+02  0.1594E+03
    -14.960  0.2537E+02  0.1597E+03
    -14.946  0.2542E+02  0.1601E+03
    -14.933  0.2542E+02  0.1604E+03
    -14.919  0.2539E+02  0.1608E+03
    -14.905  0.2532E+02  0.1611E+03
    -14.891  0.2523E+02  0.1615E+03
    -14.877  0.2511E+02  0.1618E+03
    -14.863  0.2497E+02  0.1622E+03
    -14.849  0.2482E+02  0.1625E+03
    -14.835  0.2466E+02  0.1629E+03
    -14.822  0.2450E+02  0.1632E+03
    -14.808  0.2435E+02  0.1635E+03
    -14.794  0.2421E+02  0.1639E+03
    -14.780  0.2408E+02  0.1642E+03
    -14.766  0.2397E+02  0.1645E+03
    -14.752  0.2388E+02  0.1649E+03
    -14.738  0.2380E+02  0.1652E+03
    -14.724  0.2375E+02  0.1655E+03
    -14.710  0.2371E+02  0.1659E+03
    -14.697  0.2369E+02  0.1662E+03
    -14.683  0.2368E+02  0.1665E+03
    -14.669  0.2368E+02  0.1669E+03
    -14.655  0.2368E+02  0.1672E+03
    -14.641  0.2368E+02  0.1675E+03
    -14.627  0.2368E+02  0.1678E+03
    -14.613  0.2367E+02  0.1682E+03
    -14.599  0.2365E+02  0.1685E+03
    -14.586  0.2362E+02  0.1688E+03
    -14.572  0.2358E+02  0.1692E+03
    -14.558  0.2352E+02  0.1695E+03
    -14.544  0.2345E+02  0.1698E+03
    -14.530  0.2336E+02  0.1701E+03
    -14.516  0.2326E+02  0.1705E+03
    -14.502  0.2316E+02  0.1708E+03
    -14.488  0.2305E+02  0.1711E+03
    -14.474  0.2294E+02  0.1714E+03
    -14.461  0.2282E+02  0.1717E+03
    -14.447  0.2271E+02  0.1720E+03
    -14.433  0.2261E+02  0.1724E+03
    -14.419  0.2252E+02  0.1727E+03
    -14.405  0.2243E+02  0.1730E+03
    -14.391  0.2236E+02  0.1733E+03
    -14.377  0.2230E+02  0.1736E+03
    -14.363  0.2225E+02  0.1739E+03
    -14.350  0.2221E+02  0.1742E+03
    -14.336  0.2218E+02  0.1745E+03
    -14.322  0.2216E+02  0.1748E+03
    -14.308  0.2214E+02  0.1751E+03
    -14.294  0.2213E+02  0.1754E+03
    -14.280  0.2212E+02  0.1758E+03
    -14.266  0.2211E+02  0.1761E+03
    -14.252  0.2210E+02  0.1764E+03
    -14.238  0.2210E+02  0.1767E+03
    -14.225  0.2209E+02  0.1770E+03
    -14.211  0.2209E+02  0.1773E+03
    -14.197  0.2210E+02  0.1776E+03
    -14.183  0.2211E+02  0.1779E+03
    -14.169  0.2214E+02  0.1782E+03
    -14.155  0.2217E+02  0.1785E+03
    -14.141  0.2221E+02  0.1788E+03
    -14.127  0.2226E+02  0.1791E+03
    -14.114  0.2233E+02  0.1794E+03
    -14.100  0.2240E+02  0.1798E+03
    -14.086  0.2249E+02  0.1801E+03
    -14.072  0.2258E+02  0.1804E+03
    -14.058  0.2268E+02  0.1807E+03
    -14.044  0.2279E+02  0.1810E+03
    -14.030  0.2289E+02  0.1813E+03
    -14.016  0.2299E+02  0.1817E+03
    -14.002  0.2309E+02  0.1820E+03
    -13.989  0.2319E+02  0.1823E+03
    -13.975  0.2328E+02  0.1826E+03
    -13.961  0.2336E+02  0.1829E+03
    -13.947  0.2343E+02  0.1833E+03
    -13.933  0.2349E+02  0.1836E+03
    -13.919  0.2355E+02  0.1839E+03
    -13.905  0.2361E+02  0.1842E+03
    -13.891  0.2366E+02  0.1846E+03
    -13.877  0.2371E+02  0.1849E+03
    -13.864  0.2376E+02  0.1852E+03
    -13.850  0.2382E+02  0.1856E+03
    -13.836  0.2387E+02  0.1859E+03
    -13.822  0.2394E+02  0.1862E+03
    -13.808  0.2400E+02  0.1866E+03
    -13.794  0.2407E+02  0.1869E+03
    -13.780  0.2414E+02  0.1872E+03
    -13.766  0.2422E+02  0.1876E+03
    -13.753  0.2429E+02  0.1879E+03
    -13.739  0.2436E+02  0.1882E+03
    -13.725  0.2442E+02  0.1886E+03
    -13.711  0.2447E+02  0.1889E+03
    -13.697  0.2451E+02  0.1893E+03
    -13.683  0.2453E+02  0.1896E+03
    -13.669  0.2454E+02  0.1899E+03
    -13.655  0.2452E+02  0.1903E+03
    -13.641  0.2449E+02  0.1906E+03
    -13.628  0.2444E+02  0.1910E+03
    -13.614  0.2437E+02  0.1913E+03
    -13.600  0.2428E+02  0.1916E+03
    -13.586  0.2418E+02  0.1920E+03
    -13.572  0.2406E+02  0.1923E+03
    -13.558  0.2394E+02  0.1926E+03
    -13.544  0.2381E+02  0.1930E+03
    -13.530  0.2367E+02  0.1933E+03
    -13.517  0.2354E+02  0.1936E+03
    -13.503  0.2341E+02  0.1940E+03
    -13.489  0.2330E+02  0.1943E+03
    -13.475  0.2319E+02  0.1946E+03
    -13.461  0.2310E+02  0.1949E+03
    -13.447  0.2303E+02  0.1952E+03
    -13.433  0.2298E+02  0.1956E+03
    -13.419  0.2295E+02  0.1959E+03
    -13.405  0.2294E+02  0.1962E+03
    -13.392  0.2295E+02  0.1965E+03
    -13.378  0.2299E+02  0.1968E+03
    -13.364  0.2304E+02  0.1972E+03
    -13.350  0.2311E+02  0.1975E+03
    -13.336  0.2320E+02  0.1978E+03
    -13.322  0.2330E+02  0.1981E+03
    -13.308  0.2341E+02  0.1984E+03
    -13.294  0.2352E+02  0.1988E+03
    -13.281  0.2364E+02  0.1991E+03
    -13.267  0.2375E+02  0.1994E+03
    -13.253  0.2385E+02  0.1998E+03
    -13.239  0.2395E+02  0.2001E+03
    -13.225  0.2402E+02  0.2004E+03
    -13.211  0.2407E+02  0.2008E+03
    -13.197  0.2411E+02  0.2011E+03
    -13.183  0.2411E+02  0.2014E+03
    -13.169  0.2409E+02  0.2018E+03
    -13.156  0.2404E+02  0.2021E+03
    -13.142  0.2397E+02  0.2024E+03
    -13.128  0.2386E+02  0.2028E+03
    -13.114  0.2374E+02  0.2031E+03
    -13.100  0.2359E+02  0.2034E+03
    -13.086  0.2343E+02  0.2037E+03
    -13.072  0.2326E+02  0.2041E+03
    -13.058  0.2307E+02  0.2044E+03
    -13.045  0.2289E+02  0.2047E+03
    -13.031  0.2271E+02  0.2050E+03
    -13.017  0.2253E+02  0.2053E+03
    -13.003  0.2237E+02  0.2056E+03
    -12.989  0.2222E+02  0.2060E+03
    -12.975  0.2209E+02  0.2063E+03
    -12.961  0.2198E+02  0.2066E+03
    -12.947  0.2189E+02  0.2069E+03
    -12.933  0.2182E+02  0.2072E+03
    -12.920  0.2177E+02  0.2075E+03
    -12.906  0.2175E+02  0.2078E+03
    -12.892  0.2175E+02  0.2081E+03
    -12.878  0.2176E+02  0.2084E+03
    -12.864  0.2180E+02  0.2087E+03
    -12.850  0.2185E+02  0.2090E+03
    -12.836  0.2192E+02  0.2093E+03
    -12.822  0.2199E+02  0.2096E+03
    -12.809  0.2208E+02  0.2099E+03
    -12.795  0.2218E+02  0.2102E+03
    -12.781  0.2228E+02  0.2105E+03
    -12.767  0.2240E+02  0.2108E+03
    -12.753  0.2251E+02  0.2111E+03
    -12.739  0.2264E+02  0.2115E+03
    -12.725  0.2277E+02  0.2118E+03
    -12.711  0.2291E+02  0.2121E+03
    -12.697  0.2305E+02  0.2124E+03
    -12.684  0.2321E+02  0.2127E+03