 128 128   0   0
  0.5188487E+02  0.3391608E-08  0.9790729E-09  0.2000000E-08  0.5000000E-15
  1.000000000000000E-004
  CAR 
 unknown system                          
      3.77207723    -24.29442265 2000     -3.65221248      1.00000000
    -24.294  0.0000E+00  0.0000E+00
    -24.280  0.0000E+00  0.0000E+00
    -24.266  0.0000E+00  0.0000E+00
    -24.252  0.0000E+00  0.0000E+00
    -24.238  0.0000E+00  0.0000E+00
    -24.224  0.0000E+00  0.0000E+00
    -24.210  0.0000E+00  0.0000E+00
    -24.196  0.0000E+00  0.0000E+00
    -24.182  0.0000E+00  0.0000E+00
    -24.168  0.0000E+00  0.0000E+00
    -24.154  0.0000E+00  0.0000E+00
    -24.140  0.0000E+00  0.0000E+00
    -24.126  0.0000E+00  0.0000E+00
    -24.112  0.0000E+00  0.0000E+00
    -24.098  0.0000E+00  0.0000E+00
    -24.084  0.0000E+00  0.0000E+00
    -24.070  0.0000E+00  0.0000E+00
    -24.056  0.0000E+00  0.0000E+00
    -24.042  0.0000E+00  0.0000E+00
    -24.028  0.0000E+00  0.0000E+00
    -24.014  0.0000E+00  0.0000E+00
    -24.000  0.0000E+00  0.0000E+00
    -23.986  0.0000E+00  0.0000E+00
    -23.971  0.0000E+00  0.0000E+00
    -23.957  0.0000E+00  0.0000E+00
    -23.943  0.0000E+00  0.0000E+00
    -23.929  0.0000E+00  0.0000E+00
    -23.915  0.0000E+00  0.0000E+00
    -23.901  0.0000E+00  0.0000E+00
    -23.887  0.0000E+00  0.0000E+00
    -23.873  0.0000E+00  0.0000E+00
    -23.859  0.0000E+00  0.0000E+00
    -23.845  0.0000E+00  0.0000E+00
    -23.831  0.0000E+00  0.0000E+00
    -23.817  0.0000E+00  0.0000E+00
    -23.803  0.0000E+00  0.0000E+00
    -23.789  0.0000E+00  0.0000E+00
    -23.775  0.0000E+00  0.0000E+00
    -23.761  0.0000E+00  0.0000E+00
    -23.747  0.0000E+00  0.0000E+00
    -23.733  0.0000E+00  0.0000E+00
    -23.719  0.0000E+00  0.0000E+00
    -23.705  0.0000E+00  0.0000E+00
    -23.691  0.0000E+00  0.0000E+00
    -23.677  0.0000E+00  0.0000E+00
    -23.663  0.0000E+00  0.0000E+00
    -23.649  0.0000E+00  0.0000E+00
    -23.635  0.0000E+00  0.0000E+00
    -23.620  0.0000E+00  0.0000E+00
    -23.606  0.0000E+00  0.0000E+00
    -23.592  0.0000E+00  0.0000E+00
    -23.578  0.0000E+00  0.0000E+00
    -23.564  0.0000E+00  0.0000E+00
    -23.550  0.0000E+00  0.0000E+00
    -23.536  0.0000E+00  0.0000E+00
    -23.522  0.0000E+00  0.0000E+00
    -23.508  0.0000E+00  0.0000E+00
    -23.494  0.0000E+00  0.0000E+00
    -23.480  0.0000E+00  0.0000E+00
    -23.466  0.2636E-14  0.3701E-16
    -23.452  0.2636E-14  0.7401E-16
    -23.438  0.1054E-13  0.2220E-15
    -23.424  0.1581E-13  0.4441E-15
    -23.410  0.4217E-13  0.1036E-14
    -23.396  0.9225E-13  0.2331E-14
    -23.382  0.1986E-12  0.5119E-14
    -23.368  0.4217E-12  0.1104E-13
    -23.354  0.9014E-12  0.2370E-13
    -23.340  0.1902E-11  0.5040E-13
    -23.326  0.3962E-11  0.1060E-12
    -23.312  0.8195E-11  0.2211E-12
    -23.298  0.1675E-10  0.4563E-12
    -23.284  0.3397E-10  0.9332E-12
    -23.269  0.6817E-10  0.1890E-11
    -23.255  0.1355E-09  0.3792E-11
    -23.241  0.2667E-09  0.7537E-11
    -23.227  0.5199E-09  0.1484E-10
    -23.213  0.1004E-08  0.2893E-10
    -23.199  0.1919E-08  0.5587E-10
    -23.185  0.3634E-08  0.1069E-09
    -23.171  0.6816E-08  0.2026E-09
    -23.157  0.1266E-07  0.3804E-09
    -23.143  0.2330E-07  0.7075E-09
    -23.129  0.4245E-07  0.1303E-08
    -23.115  0.7661E-07  0.2379E-08
    -23.101  0.1369E-06  0.4302E-08
    -23.087  0.2425E-06  0.7706E-08
    -23.073  0.4252E-06  0.1368E-07
    -23.059  0.7385E-06  0.2405E-07
    -23.045  0.1271E-05  0.4189E-07
    -23.031  0.2166E-05  0.7229E-07
    -23.017  0.3656E-05  0.1236E-06
    -23.003  0.6113E-05  0.2094E-06
    -22.989  0.1012E-04  0.3516E-06
    -22.975  0.1661E-04  0.5848E-06
    -22.961  0.2700E-04  0.9640E-06
    -22.947  0.4348E-04  0.1574E-05
    -22.933  0.6935E-04  0.2548E-05
    -22.918  0.1096E-03  0.4087E-05
    -22.904  0.1716E-03  0.6496E-05
    -22.890  0.2661E-03  0.1023E-04
    -22.876  0.4088E-03  0.1597E-04
    -22.862  0.6224E-03  0.2471E-04
    -22.848  0.9388E-03  0.3789E-04
    -22.834  0.1403E-02  0.5759E-04
    -22.820  0.2077E-02  0.8675E-04
    -22.806  0.3048E-02  0.1295E-03
    -22.792  0.4430E-02  0.1917E-03
    -22.778  0.6382E-02  0.2813E-03
    -22.764  0.9109E-02  0.4092E-03
    -22.750  0.1288E-01  0.5901E-03
    -22.736  0.1806E-01  0.8437E-03
    -22.722  0.2509E-01  0.1196E-02
    -22.708  0.3454E-01  0.1681E-02
    -22.694  0.4712E-01  0.2342E-02
    -22.680  0.6371E-01  0.3237E-02
    -22.666  0.8538E-01  0.4436E-02
    -22.652  0.1134E+00  0.6028E-02
    -22.638  0.1493E+00  0.8125E-02
    -22.624  0.1949E+00  0.1086E-01
    -22.610  0.2520E+00  0.1440E-01
    -22.596  0.3232E+00  0.1894E-01
    -22.582  0.4108E+00  0.2470E-01
    -22.567  0.5177E+00  0.3197E-01
    -22.553  0.6467E+00  0.4105E-01
    -22.539  0.8009E+00  0.5230E-01
    -22.525  0.9835E+00  0.6611E-01
    -22.511  0.1197E+01  0.8292E-01
    -22.497  0.1446E+01  0.1032E+00
    -22.483  0.1730E+01  0.1275E+00
    -22.469  0.2054E+01  0.1564E+00
    -22.455  0.2418E+01  0.1903E+00
    -22.441  0.2823E+01  0.2299E+00
    -22.427  0.3269E+01  0.2758E+00
    -22.413  0.3755E+01  0.3286E+00
    -22.399  0.4278E+01  0.3886E+00
    -22.385  0.4835E+01  0.4565E+00
    -22.371  0.5422E+01  0.5326E+00
    -22.357  0.6033E+01  0.6173E+00
    -22.343  0.6661E+01  0.7109E+00
    -22.329  0.7299E+01  0.8133E+00
    -22.315  0.7939E+01  0.9248E+00
    -22.301  0.8572E+01  0.1045E+01
    -22.287  0.9190E+01  0.1174E+01
    -22.273  0.9785E+01  0.1312E+01
    -22.259  0.1035E+02  0.1457E+01
    -22.245  0.1087E+02  0.1609E+01
    -22.231  0.1135E+02  0.1769E+01
    -22.216  0.1178E+02  0.1934E+01
    -22.202  0.1215E+02  0.2105E+01
    -22.188  0.1247E+02  0.2280E+01
    -22.174  0.1273E+02  0.2459E+01
    -22.160  0.1293E+02  0.2640E+01
    -22.146  0.1308E+02  0.2824E+01
    -22.132  0.1318E+02  0.3009E+01
    -22.118  0.1323E+02  0.3195E+01
    -22.104  0.1324E+02  0.3380E+01
    -22.090  0.1321E+02  0.3566E+01
    -22.076  0.1316E+02  0.3751E+01
    -22.062  0.1308E+02  0.3934E+01
    -22.048  0.1300E+02  0.4117E+01
    -22.034  0.1291E+02  0.4298E+01
    -22.020  0.1282E+02  0.4478E+01
    -22.006  0.1274E+02  0.4657E+01
    -21.992  0.1269E+02  0.4835E+01
    -21.978  0.1266E+02  0.5013E+01
    -21.964  0.1266E+02  0.5190E+01
    -21.950  0.1270E+02  0.5369E+01
    -21.936  0.1278E+02  0.5548E+01
    -21.922  0.1291E+02  0.5730E+01
    -21.908  0.1310E+02  0.5913E+01
    -21.894  0.1333E+02  0.6101E+01
    -21.879  0.1361E+02  0.6292E+01
    -21.865  0.1395E+02  0.6488E+01
    -21.851  0.1433E+02  0.6689E+01
    -21.837  0.1475E+02  0.6896E+01
    -21.823  0.1521E+02  0.7109E+01
    -21.809  0.1569E+02  0.7330E+01
    -21.795  0.1619E+02  0.7557E+01
    -21.781  0.1670E+02  0.7792E+01
    -21.767  0.1721E+02  0.8033E+01
    -21.753  0.1771E+02  0.8282E+01
    -21.739  0.1819E+02  0.8537E+01
    -21.725  0.1863E+02  0.8799E+01
    -21.711  0.1903E+02  0.9066E+01
    -21.697  0.1939E+02  0.9338E+01
    -21.683  0.1969E+02  0.9615E+01
    -21.669  0.1994E+02  0.9895E+01
    -21.655  0.2012E+02  0.1018E+02
    -21.641  0.2025E+02  0.1046E+02
    -21.627  0.2032E+02  0.1075E+02
    -21.613  0.2033E+02  0.1103E+02
    -21.599  0.2029E+02  0.1132E+02
    -21.585  0.2021E+02  0.1160E+02
    -21.571  0.2008E+02  0.1188E+02
    -21.557  0.1992E+02  0.1216E+02
    -21.543  0.1974E+02  0.1244E+02
    -21.528  0.1954E+02  0.1271E+02
    -21.514  0.1933E+02  0.1299E+02
    -21.500  0.1912E+02  0.1325E+02
    -21.486  0.1891E+02  0.1352E+02
    -21.472  0.1871E+02  0.1378E+02
    -21.458  0.1852E+02  0.1404E+02
    -21.444  0.1835E+02  0.1430E+02
    -21.430  0.1821E+02  0.1456E+02
    -21.416  0.1809E+02  0.1481E+02
    -21.402  0.1799E+02  0.1506E+02
    -21.388  0.1793E+02  0.1531E+02
    -21.374  0.1789E+02  0.1556E+02
    -21.360  0.1788E+02  0.1582E+02
    -21.346  0.1790E+02  0.1607E+02
    -21.332  0.1794E+02  0.1632E+02
    -21.318  0.1801E+02  0.1657E+02
    -21.304  0.1810E+02  0.1683E+02
    -21.290  0.1822E+02  0.1708E+02
    -21.276  0.1834E+02  0.1734E+02
    -21.262  0.1848E+02  0.1760E+02
    -21.248  0.1863E+02  0.1786E+02
    -21.234  0.1877E+02  0.1812E+02
    -21.220  0.1892E+02  0.1839E+02
    -21.206  0.1906E+02  0.1866E+02
    -21.192  0.1919E+02  0.1893E+02
    -21.177  0.1930E+02  0.1920E+02
    -21.163  0.1939E+02  0.1947E+02
    -21.149  0.1946E+02  0.1974E+02
    -21.135  0.1950E+02  0.2002E+02
    -21.121  0.1951E+02  0.2029E+02
    -21.107  0.1949E+02  0.2056E+02
    -21.093  0.1944E+02  0.2084E+02
    -21.079  0.1936E+02  0.2111E+02
    -21.065  0.1925E+02  0.2138E+02
    -21.051  0.1911E+02  0.2165E+02
    -21.037  0.1895E+02  0.2191E+02
    -21.023  0.1876E+02  0.2218E+02
    -21.009  0.1857E+02  0.2244E+02
    -20.995  0.1836E+02  0.2270E+02
    -20.981  0.1815E+02  0.2295E+02
    -20.967  0.1794E+02  0.2320E+02
    -20.953  0.1773E+02  0.2345E+02
    -20.939  0.1754E+02  0.2370E+02
    -20.925  0.1737E+02  0.2394E+02
    -20.911  0.1722E+02  0.2418E+02
    -20.897  0.1710E+02  0.2442E+02
    -20.883  0.1702E+02  0.2466E+02
    -20.869  0.1696E+02  0.2490E+02
    -20.855  0.1694E+02  0.2514E+02
    -20.841  0.1696E+02  0.2538E+02
    -20.826  0.1701E+02  0.2562E+02
    -20.812  0.1709E+02  0.2586E+02
    -20.798  0.1721E+02  0.2610E+02
    -20.784  0.1735E+02  0.2634E+02
    -20.770  0.1751E+02  0.2659E+02
    -20.756  0.1769E+02  0.2683E+02
    -20.742  0.1788E+02  0.2709E+02
    -20.728  0.1809E+02  0.2734E+02
    -20.714  0.1829E+02  0.2760E+02
    -20.700  0.1850E+02  0.2786E+02
    -20.686  0.1870E+02  0.2812E+02
    -20.672  0.1890E+02  0.2838E+02
    -20.658  0.1908E+02  0.2865E+02
    -20.644  0.1926E+02  0.2892E+02
    -20.630  0.1943E+02  0.2920E+02
    -20.616  0.1958E+02  0.2947E+02
    -20.602  0.1972E+02  0.2975E+02
    -20.588  0.1985E+02  0.3003E+02
    -20.574  0.1997E+02  0.3031E+02
    -20.560  0.2008E+02  0.3059E+02
    -20.546  0.2018E+02  0.3087E+02
    -20.532  0.2028E+02  0.3116E+02
    -20.518  0.2037E+02  0.3144E+02
    -20.504  0.2045E+02  0.3173E+02
    -20.490  0.2053E+02  0.3202E+02
    -20.475  0.2060E+02  0.3231E+02
    -20.461  0.2068E+02  0.3260E+02
    -20.447  0.2075E+02  0.3289E+02
    -20.433  0.2082E+02  0.3318E+02
    -20.419  0.2090E+02  0.3347E+02
    -20.405  0.2098E+02  0.3377E+02
    -20.391  0.2106E+02  0.3406E+02
    -20.377  0.2115E+02  0.3436E+02
    -20.363  0.2125E+02  0.3466E+02
    -20.349  0.2135E+02  0.3496E+02
    -20.335  0.2146E+02  0.3526E+02
    -20.321  0.2157E+02  0.3556E+02
    -20.307  0.2168E+02  0.3587E+02
    -20.293  0.2180E+02  0.3617E+02
    -20.279  0.2192E+02  0.3648E+02
    -20.265  0.2203E+02  0.3679E+02
    -20.251  0.2214E+02  0.3710E+02
    -20.237  0.2223E+02  0.3741E+02
    -20.223  0.2231E+02  0.3773E+02
    -20.209  0.2237E+02  0.3804E+02
    -20.195  0.2241E+02  0.3836E+02
    -20.181  0.2242E+02  0.3867E+02
    -20.167  0.2241E+02  0.3899E+02
    -20.153  0.2237E+02  0.3930E+02
    -20.139  0.2230E+02  0.3961E+02
    -20.124  0.2220E+02  0.3992E+02
    -20.110  0.2207E+02  0.4023E+02
    -20.096  0.2192E+02  0.4054E+02
    -20.082  0.2176E+02  0.4085E+02
    -20.068  0.2157E+02  0.4115E+02
    -20.054  0.2138E+02  0.4145E+02
    -20.040  0.2118E+02  0.4175E+02
    -20.026  0.2099E+02  0.4204E+02
    -20.012  0.2080E+02  0.4233E+02
    -19.998  0.2062E+02  0.4262E+02
    -19.984  0.2047E+02  0.4291E+02
    -19.970  0.2033E+02  0.4320E+02
    -19.956  0.2022E+02  0.4348E+02
    -19.942  0.2014E+02  0.4376E+02
    -19.928  0.2009E+02  0.4405E+02
    -19.914  0.2007E+02  0.4433E+02
    -19.900  0.2007E+02  0.4461E+02
    -19.886  0.2010E+02  0.4489E+02
    -19.872  0.2015E+02  0.4517E+02
    -19.858  0.2022E+02  0.4546E+02
    -19.844  0.2030E+02  0.4574E+02
    -19.830  0.2039E+02  0.4603E+02
    -19.816  0.2048E+02  0.4632E+02
    -19.802  0.2057E+02  0.4661E+02
    -19.787  0.2065E+02  0.4690E+02
    -19.773  0.2073E+02  0.4719E+02
    -19.759  0.2080E+02  0.4748E+02
    -19.745  0.2085E+02  0.4777E+02
    -19.731  0.2090E+02  0.4807E+02
    -19.717  0.2093E+02  0.4836E+02
    -19.703  0.2095E+02  0.4865E+02
    -19.689  0.2097E+02  0.4895E+02
    -19.675  0.2097E+02  0.4924E+02
    -19.661  0.2097E+02  0.4954E+02
    -19.647  0.2096E+02  0.4983E+02
    -19.633  0.2095E+02  0.5012E+02
    -19.619  0.2093E+02  0.5042E+02
    -19.605  0.2091E+02  0.5071E+02
    -19.591  0.2088E+02  0.5101E+02
    -19.577  0.2085E+02  0.5130E+02
    -19.563  0.2081E+02  0.5159E+02
    -19.549  0.2076E+02  0.5188E+02
    -19.535  0.2070E+02  0.5217E+02
    -19.521  0.2063E+02  0.5246E+02
    -19.507  0.2055E+02  0.5275E+02
    -19.493  0.2046E+02  0.5304E+02
    -19.479  0.2036E+02  0.5332E+02
    -19.465  0.2024E+02  0.5361E+02
    -19.451  0.2011E+02  0.5389E+02
    -19.436  0.1998E+02  0.5417E+02
    -19.422  0.1984E+02  0.5445E+02
    -19.408  0.1970E+02  0.5473E+02
    -19.394  0.1957E+02  0.5500E+02
    -19.380  0.1944E+02  0.5527E+02
    -19.366  0.1934E+02  0.5555E+02
    -19.352  0.1925E+02  0.5582E+02
    -19.338  0.1919E+02  0.5609E+02
    -19.324  0.1917E+02  0.5635E+02
    -19.310  0.1918E+02  0.5662E+02
    -19.296  0.1923E+02  0.5689E+02
    -19.282  0.1932E+02  0.5716E+02
    -19.268  0.1945E+02  0.5744E+02
    -19.254  0.1963E+02  0.5771E+02
    -19.240  0.1985E+02  0.5799E+02
    -19.226  0.2011E+02  0.5827E+02
    -19.212  0.2039E+02  0.5856E+02
    -19.198  0.2071E+02  0.5885E+02
    -19.184  0.2105E+02  0.5915E+02
    -19.170  0.2140E+02  0.5945E+02
    -19.156  0.2175E+02  0.5975E+02
    -19.142  0.2210E+02  0.6006E+02
    -19.128  0.2244E+02  0.6038E+02
    -19.114  0.2277E+02  0.6070E+02
    -19.100  0.2306E+02  0.6102E+02
    -19.085  0.2333E+02  0.6135E+02
    -19.071  0.2355E+02  0.6168E+02
    -19.057  0.2374E+02  0.6201E+02
    -19.043  0.2387E+02  0.6235E+02
    -19.029  0.2396E+02  0.6268E+02
    -19.015  0.2399E+02  0.6302E+02
    -19.001  0.2397E+02  0.6336E+02
    -18.987  0.2390E+02  0.6369E+02
    -18.973  0.2378E+02  0.6403E+02
    -18.959  0.2361E+02  0.6436E+02
    -18.945  0.2340E+02  0.6469E+02
    -18.931  0.2314E+02  0.6501E+02
    -18.917  0.2285E+02  0.6533E+02
    -18.903  0.2253E+02  0.6565E+02
    -18.889  0.2219E+02  0.6596E+02
    -18.875  0.2183E+02  0.6627E+02
    -18.861  0.2146E+02  0.6657E+02
    -18.847  0.2109E+02  0.6687E+02
    -18.833  0.2072E+02  0.6716E+02
    -18.819  0.2037E+02  0.6744E+02
    -18.805  0.2005E+02  0.6772E+02
    -18.791  0.1975E+02  0.6800E+02
    -18.777  0.1948E+02  0.6827E+02
    -18.763  0.1926E+02  0.6854E+02
    -18.749  0.1909E+02  0.6881E+02
    -18.734  0.1897E+02  0.6908E+02
    -18.720  0.1890E+02  0.6934E+02
    -18.706  0.1889E+02  0.6961E+02
    -18.692  0.1892E+02  0.6988E+02
    -18.678  0.1902E+02  0.7014E+02
    -18.664  0.1915E+02  0.7041E+02
    -18.650  0.1934E+02  0.7068E+02
    -18.636  0.1955E+02  0.7096E+02
    -18.622  0.1980E+02  0.7124E+02
    -18.608  0.2006E+02  0.7152E+02
    -18.594  0.2033E+02  0.7180E+02
    -18.580  0.2061E+02  0.7209E+02
    -18.566  0.2088E+02  0.7238E+02
    -18.552  0.2113E+02  0.7268E+02
    -18.538  0.2135E+02  0.7298E+02
    -18.524  0.2155E+02  0.7328E+02
    -18.510  0.2171E+02  0.7359E+02
    -18.496  0.2183E+02  0.7390E+02
    -18.482  0.2191E+02  0.7420E+02
    -18.468  0.2196E+02  0.7451E+02
    -18.454  0.2196E+02  0.7482E+02
    -18.440  0.2194E+02  0.7513E+02
    -18.426  0.2189E+02  0.7544E+02
    -18.412  0.2182E+02  0.7574E+02
    -18.398  0.2174E+02  0.7605E+02
    -18.383  0.2166E+02  0.7635E+02
    -18.369  0.2159E+02  0.7665E+02
    -18.355  0.2153E+02  0.7696E+02
    -18.341  0.2149E+02  0.7726E+02
    -18.327  0.2148E+02  0.7756E+02
    -18.313  0.2149E+02  0.7786E+02
    -18.299  0.2154E+02  0.7816E+02
    -18.285  0.2162E+02  0.7847E+02
    -18.271  0.2174E+02  0.7877E+02
    -18.257  0.2187E+02  0.7908E+02
    -18.243  0.2202E+02  0.7939E+02
    -18.229  0.2219E+02  0.7970E+02
    -18.215  0.2235E+02  0.8001E+02
    -18.201  0.2251E+02  0.8033E+02
    -18.187  0.2265E+02  0.8065E+02
    -18.173  0.2276E+02  0.8097E+02
    -18.159  0.2284E+02  0.8129E+02
    -18.145  0.2288E+02  0.8161E+02
    -18.131  0.2288E+02  0.8193E+02
    -18.117  0.2283E+02  0.8225E+02
    -18.103  0.2274E+02  0.8257E+02
    -18.089  0.2261E+02  0.8289E+02
    -18.075  0.2244E+02  0.8320E+02
    -18.061  0.2224E+02  0.8352E+02
    -18.047  0.2201E+02  0.8382E+02
    -18.032  0.2178E+02  0.8413E+02
    -18.018  0.2155E+02  0.8443E+02
    -18.004  0.2132E+02  0.8473E+02
    -17.990  0.2111E+02  0.8503E+02
    -17.976  0.2092E+02  0.8532E+02
    -17.962  0.2077E+02  0.8561E+02
    -17.948  0.2066E+02  0.8590E+02
    -17.934  0.2059E+02  0.8619E+02
    -17.920  0.2057E+02  0.8648E+02
    -17.906  0.2058E+02  0.8677E+02
    -17.892  0.2064E+02  0.8706E+02
    -17.878  0.2074E+02  0.8735E+02
    -17.864  0.2087E+02  0.8764E+02
    -17.850  0.2103E+02  0.8794E+02
    -17.836  0.2122E+02  0.8824E+02
    -17.822  0.2142E+02  0.8854E+02
    -17.808  0.2163E+02  0.8884E+02
    -17.794  0.2185E+02  0.8915E+02
    -17.780  0.2208E+02  0.8946E+02
    -17.766  0.2230E+02  0.8977E+02
    -17.752  0.2251E+02  0.9009E+02
    -17.738  0.2272E+02  0.9041E+02
    -17.724  0.2293E+02  0.9073E+02
    -17.710  0.2313E+02  0.9105E+02
    -17.695  0.2332E+02  0.9138E+02
    -17.681  0.2350E+02  0.9171E+02
    -17.667  0.2369E+02  0.9204E+02
    -17.653  0.2387E+02  0.9238E+02
    -17.639  0.2405E+02  0.9272E+02
    -17.625  0.2424E+02  0.9306E+02
    -17.611  0.2443E+02  0.9340E+02
    -17.597  0.2463E+02  0.9375E+02
    -17.583  0.2483E+02  0.9409E+02
    -17.569  0.2505E+02  0.9445E+02
    -17.555  0.2527E+02  0.9480E+02
    -17.541  0.2549E+02  0.9516E+02
    -17.527  0.2572E+02  0.9552E+02
    -17.513  0.2595E+02  0.9588E+02
    -17.499  0.2618E+02  0.9625E+02
    -17.485  0.2640E+02  0.9662E+02
    -17.471  0.2660E+02  0.9700E+02
    -17.457  0.2678E+02  0.9737E+02
    -17.443  0.2694E+02  0.9775E+02
    -17.429  0.2706E+02  0.9813E+02
    -17.415  0.2714E+02  0.9851E+02
    -17.401  0.2717E+02  0.9889E+02
    -17.387  0.2715E+02  0.9927E+02
    -17.373  0.2707E+02  0.9965E+02
    -17.359  0.2693E+02  0.1000E+03
    -17.344  0.2674E+02  0.1004E+03
    -17.330  0.2648E+02  0.1008E+03
    -17.316  0.2616E+02  0.1011E+03
    -17.302  0.2578E+02  0.1015E+03
    -17.288  0.2536E+02  0.1019E+03
    -17.274  0.2490E+02  0.1022E+03
    -17.260  0.2441E+02  0.1026E+03
    -17.246  0.2390E+02  0.1029E+03
    -17.232  0.2337E+02  0.1032E+03
    -17.218  0.2285E+02  0.1035E+03
    -17.204  0.2234E+02  0.1039E+03
    -17.190  0.2185E+02  0.1042E+03
    -17.176  0.2139E+02  0.1045E+03
    -17.162  0.2097E+02  0.1048E+03
    -17.148  0.2060E+02  0.1050E+03
    -17.134  0.2028E+02  0.1053E+03
    -17.120  0.2001E+02  0.1056E+03
    -17.106  0.1978E+02  0.1059E+03
    -17.092  0.1961E+02  0.1062E+03
    -17.078  0.1948E+02  0.1064E+03
    -17.064  0.1939E+02  0.1067E+03
    -17.050  0.1932E+02  0.1070E+03
    -17.036  0.1928E+02  0.1073E+03
    -17.022  0.1926E+02  0.1075E+03
    -17.008  0.1924E+02  0.1078E+03
    -16.993  0.1922E+02  0.1081E+03
    -16.979  0.1919E+02  0.1083E+03
    -16.965  0.1915E+02  0.1086E+03
    -16.951  0.1908E+02  0.1089E+03
    -16.937  0.1900E+02  0.1091E+03
    -16.923  0.1889E+02  0.1094E+03
    -16.909  0.1875E+02  0.1097E+03
    -16.895  0.1860E+02  0.1099E+03
    -16.881  0.1842E+02  0.1102E+03
    -16.867  0.1822E+02  0.1104E+03
    -16.853  0.1801E+02  0.1107E+03
    -16.839  0.1779E+02  0.1109E+03
    -16.825  0.1757E+02  0.1112E+03
    -16.811  0.1735E+02  0.1114E+03
    -16.797  0.1713E+02  0.1117E+03
    -16.783  0.1692E+02  0.1119E+03
    -16.769  0.1673E+02  0.1121E+03
    -16.755  0.1656E+02  0.1124E+03
    -16.741  0.1641E+02  0.1126E+03
    -16.727  0.1628E+02  0.1128E+03
    -16.713  0.1617E+02  0.1131E+03
    -16.699  0.1609E+02  0.1133E+03
    -16.685  0.1602E+02  0.1135E+03
    -16.671  0.1599E+02  0.1137E+03
    -16.657  0.1597E+02  0.1140E+03
    -16.642  0.1596E+02  0.1142E+03
    -16.628  0.1598E+02  0.1144E+03
    -16.614  0.1601E+02  0.1146E+03
    -16.600  0.1604E+02  0.1149E+03
    -16.586  0.1609E+02  0.1151E+03
    -16.572  0.1614E+02  0.1153E+03
    -16.558  0.1620E+02  0.1155E+03
    -16.544  0.1626E+02  0.1158E+03
    -16.530  0.1632E+02  0.1160E+03
    -16.516  0.1639E+02  0.1162E+03
    -16.502  0.1646E+02  0.1165E+03
    -16.488  0.1653E+02  0.1167E+03
    -16.474  0.1661E+02  0.1169E+03
    -16.460  0.1669E+02  0.1172E+03
    -16.446  0.1678E+02  0.1174E+03
    -16.432  0.1688E+02  0.1176E+03
    -16.418  0.1698E+02  0.1179E+03
    -16.404  0.1709E+02  0.1181E+03
    -16.390  0.1721E+02  0.1184E+03
    -16.376  0.1734E+02  0.1186E+03
    -16.362  0.1748E+02  0.1188E+03
    -16.348  0.1762E+02  0.1191E+03
    -16.334  0.1777E+02  0.1193E+03
    -16.320  0.1793E+02  0.1196E+03
    -16.306  0.1809E+02  0.1198E+03
    -16.291  0.1826E+02  0.1201E+03
    -16.277  0.1843E+02  0.1204E+03
    -16.263  0.1860E+02  0.1206E+03
    -16.249  0.1877E+02  0.1209E+03
    -16.235  0.1894E+02  0.1211E+03
    -16.221  0.1912E+02  0.1214E+03
    -16.207  0.1929E+02  0.1217E+03
    -16.193  0.1946E+02  0.1220E+03
    -16.179  0.1963E+02  0.1222E+03
    -16.165  0.1980E+02  0.1225E+03
    -16.151  0.1996E+02  0.1228E+03
    -16.137  0.2012E+02  0.1231E+03
    -16.123  0.2027E+02  0.1234E+03
    -16.109  0.2042E+02  0.1237E+03
    -16.095  0.2055E+02  0.1239E+03
    -16.081  0.2068E+02  0.1242E+03
    -16.067  0.2080E+02  0.1245E+03
    -16.053  0.2090E+02  0.1248E+03
    -16.039  0.2098E+02  0.1251E+03
    -16.025  0.2105E+02  0.1254E+03
    -16.011  0.2110E+02  0.1257E+03
    -15.997  0.2113E+02  0.1260E+03
    -15.983  0.2114E+02  0.1263E+03
    -15.969  0.2113E+02  0.1266E+03
    -15.955  0.2110E+02  0.1269E+03
    -15.940  0.2105E+02  0.1272E+03
    -15.926  0.2099E+02  0.1275E+03
    -15.912  0.2092E+02  0.1278E+03
    -15.898  0.2083E+02  0.1281E+03
    -15.884  0.2073E+02  0.1284E+03
    -15.870  0.2063E+02  0.1286E+03
    -15.856  0.2053E+02  0.1289E+03
    -15.842  0.2043E+02  0.1292E+03
    -15.828  0.2034E+02  0.1295E+03
    -15.814  0.2025E+02  0.1298E+03
    -15.800  0.2017E+02  0.1301E+03
    -15.786  0.2010E+02  0.1304E+03
    -15.772  0.2005E+02  0.1306E+03
    -15.758  0.2000E+02  0.1309E+03
    -15.744  0.1998E+02  0.1312E+03
    -15.730  0.1997E+02  0.1315E+03
    -15.716  0.1997E+02  0.1318E+03
    -15.702  0.1998E+02  0.1320E+03
    -15.688  0.2001E+02  0.1323E+03
    -15.674  0.2005E+02  0.1326E+03
    -15.660  0.2011E+02  0.1329E+03
    -15.646  0.2017E+02  0.1332E+03
    -15.632  0.2024E+02  0.1335E+03
    -15.618  0.2033E+02  0.1337E+03
    -15.603  0.2042E+02  0.1340E+03
    -15.589  0.2053E+02  0.1343E+03
    -15.575  0.2065E+02  0.1346E+03
    -15.561  0.2077E+02  0.1349E+03
    -15.547  0.2091E+02  0.1352E+03
    -15.533  0.2106E+02  0.1355E+03
    -15.519  0.2123E+02  0.1358E+03
    -15.505  0.2140E+02  0.1361E+03
    -15.491  0.2157E+02  0.1364E+03
    -15.477  0.2175E+02  0.1367E+03
    -15.463  0.2194E+02  0.1370E+03
    -15.449  0.2212E+02  0.1373E+03
    -15.435  0.2231E+02  0.1376E+03
    -15.421  0.2248E+02  0.1379E+03
    -15.407  0.2265E+02  0.1383E+03
    -15.393  0.2280E+02  0.1386E+03
    -15.379  0.2294E+02  0.1389E+03
    -15.365  0.2306E+02  0.1392E+03
    -15.351  0.2317E+02  0.1395E+03
    -15.337  0.2326E+02  0.1399E+03
    -15.323  0.2333E+02  0.1402E+03
    -15.309  0.2339E+02  0.1405E+03
    -15.295  0.2344E+02  0.1409E+03
    -15.281  0.2349E+02  0.1412E+03
    -15.267  0.2352E+02  0.1415E+03
    -15.252  0.2356E+02  0.1418E+03
    -15.238  0.2359E+02  0.1422E+03
    -15.224  0.2363E+02  0.1425E+03
    -15.210  0.2366E+02  0.1428E+03
    -15.196  0.2371E+02  0.1432E+03
    -15.182  0.2375E+02  0.1435E+03
    -15.168  0.2380E+02  0.1438E+03
    -15.154  0.2384E+02  0.1442E+03
    -15.140  0.2389E+02  0.1445E+03
    -15.126  0.2393E+02  0.1448E+03
    -15.112  0.2397E+02  0.1452E+03
    -15.098  0.2400E+02  0.1455E+03
    -15.084  0.2401E+02  0.1459E+03
    -15.070  0.2402E+02  0.1462E+03
    -15.056  0.2402E+02  0.1465E+03
    -15.042  0.2400E+02  0.1469E+03
    -15.028  0.2398E+02  0.1472E+03
    -15.014  0.2394E+02  0.1475E+03
    -15.000  0.2390E+02  0.1479E+03
    -14.986  0.2385E+02  0.1482E+03
    -14.972  0.2380E+02  0.1485E+03
    -14.958  0.2375E+02  0.1489E+03
    -14.944  0.2371E+02  0.1492E+03
    -14.930  0.2367E+02  0.1495E+03
    -14.916  0.2363E+02  0.1499E+03
    -14.901  0.2360E+02  0.1502E+03
    -14.887  0.2358E+02  0.1505E+03
    -14.873  0.2356E+02  0.1509E+03
    -14.859  0.2355E+02  0.1512E+03
    -14.845  0.2355E+02  0.1515E+03
    -14.831  0.2354E+02  0.1519E+03
    -14.817  0.2354E+02  0.1522E+03
    -14.803  0.2353E+02  0.1525E+03
    -14.789  0.2351E+02  0.1529E+03
    -14.775  0.2349E+02  0.1532E+03
    -14.761  0.2346E+02  0.1535E+03
    -14.747  0.2342E+02  0.1538E+03
    -14.733  0.2336E+02  0.1542E+03
    -14.719  0.2330E+02  0.1545E+03
    -14.705  0.2322E+02  0.1548E+03
    -14.691  0.2314E+02  0.1551E+03
    -14.677  0.2304E+02  0.1555E+03
    -14.663  0.2294E+02  0.1558E+03
    -14.649  0.2283E+02  0.1561E+03
    -14.635  0.2272E+02  0.1564E+03
    -14.621  0.2261E+02  0.1568E+03
    -14.607  0.2250E+02  0.1571E+03
    -14.593  0.2240E+02  0.1574E+03
    -14.579  0.2229E+02  0.1577E+03
    -14.565  0.2220E+02  0.1580E+03
    -14.550  0.2210E+02  0.1583E+03
    -14.536  0.2201E+02  0.1586E+03
    -14.522  0.2193E+02  0.1589E+03
    -14.508  0.2185E+02  0.1592E+03
    -14.494  0.2177E+02  0.1595E+03
    -14.480  0.2169E+02  0.1599E+03
    -14.466  0.2161E+02  0.1602E+03
    -14.452  0.2153E+02  0.1605E+03
    -14.438  0.2143E+02  0.1608E+03
    -14.424  0.2133E+02  0.1611E+03
    -14.410  0.2122E+02  0.1614E+03
    -14.396  0.2109E+02  0.1617E+03
    -14.382  0.2096E+02  0.1619E+03
    -14.368  0.2081E+02  0.1622E+03
    -14.354  0.2065E+02  0.1625E+03
    -14.340  0.2048E+02  0.1628E+03
    -14.326  0.2031E+02  0.1631E+03
    -14.312  0.2014E+02  0.1634E+03
    -14.298  0.1996E+02  0.1637E+03
    -14.284  0.1979E+02  0.1639E+03
    -14.270  0.1963E+02  0.1642E+03
    -14.256  0.1947E+02  0.1645E+03
    -14.242  0.1933E+02  0.1648E+03
    -14.228  0.1921E+02  0.1650E+03
    -14.214  0.1910E+02  0.1653E+03
    -14.199  0.1901E+02  0.1656E+03
    -14.185  0.1895E+02  0.1658E+03
    -14.171  0.1890E+02  0.1661E+03
    -14.157  0.1888E+02  0.1664E+03
    -14.143  0.1887E+02  0.1666E+03
    -14.129  0.1888E+02  0.1669E+03
    -14.115  0.1891E+02  0.1672E+03
    -14.101  0.1895E+02  0.1674E+03
    -14.087  0.1900E+02  0.1677E+03
    -14.073  0.1906E+02  0.1680E+03
    -14.059  0.1914E+02  0.1682E+03
    -14.045  0.1921E+02  0.1685E+03
    -14.031  0.1930E+02  0.1688E+03
    -14.017  0.1938E+02  0.1690E+03
    -14.003  0.1947E+02  0.1693E+03
    -13.989  0.1955E+02  0.1696E+03
    -13.975  0.1963E+02  0.1699E+03
    -13.961  0.1971E+02  0.1701E+03
    -13.947  0.1979E+02  0.1704E+03
    -13.933  0.1987E+02  0.1707E+03
    -13.919  0.1993E+02  0.1710E+03
    -13.905  0.2000E+02  0.1713E+03
    -13.891  0.2006E+02  0.1715E+03
    -13.877  0.2012E+02  0.1718E+03
    -13.863  0.2017E+02  0.1721E+03
    -13.848  0.2023E+02  0.1724E+03
    -13.834  0.2028E+02  0.1727E+03
    -13.820  0.2034E+02  0.1730E+03
    -13.806  0.2041E+02  0.1732E+03
    -13.792  0.2048E+02  0.1735E+03
    -13.778  0.2057E+02  0.1738E+03
    -13.764  0.2067E+02  0.1741E+03
    -13.750  0.2078E+02  0.1744E+03
    -13.736  0.2090E+02  0.1747E+03
    -13.722  0.2104E+02  0.1750E+03
    -13.708  0.2120E+02  0.1753E+03
    -13.694  0.2138E+02  0.1756E+03
    -13.680  0.2157E+02  0.1759E+03
    -13.666  0.2177E+02  0.1762E+03
    -13.652  0.2199E+02  0.1765E+03
    -13.638  0.2222E+02  0.1768E+03
    -13.624  0.2245E+02  0.1771E+03
    -13.610  0.2269E+02  0.1775E+03
    -13.596  0.2293E+02  0.1778E+03
    -13.582  0.2317E+02  0.1781E+03
    -13.568  0.2340E+02  0.1784E+03
    -13.554  0.2361E+02  0.1788E+03
    -13.540  0.2381E+02  0.1791E+03
    -13.526  0.2399E+02  0.1794E+03
    -13.511  0.2414E+02  0.1798E+03
    -13.497  0.2427E+02  0.1801E+03
    -13.483  0.2436E+02  0.1805E+03
    -13.469  0.2442E+02  0.1808E+03
    -13.455  0.2444E+02  0.1811E+03
    -13.441  0.2443E+02  0.1815E+03
    -13.427  0.2438E+02  0.1818E+03
    -13.413  0.2429E+02  0.1822E+03
    -13.399  0.2417E+02  0.1825E+03
    -13.385  0.2402E+02  0.1828E+03
    -13.371  0.2384E+02  0.1832E+03
    -13.357  0.2364E+02  0.1835E+03
    -13.343  0.2342E+02  0.1838E+03
    -13.329  0.2319E+02  0.1842E+03
    -13.315  0.2296E+02  0.1845E+03
    -13.301  0.2273E+02  0.1848E+03
    -13.287  0.2250E+02  0.1851E+03
    -13.273  0.2228E+02  0.1854E+03
    -13.259  0.2208E+02  0.1857E+03
    -13.245  0.2191E+02  0.1861E+03
    -13.231  0.2176E+02  0.1864E+03
    -13.217  0.2165E+02  0.1867E+03
    -13.203  0.2156E+02  0.1870E+03
    -13.189  0.2151E+02  0.1873E+03
    -13.175  0.2150E+02  0.1876E+03
    -13.160  0.2152E+02  0.1879E+03
    -13.146  0.2158E+02  0.1882E+03
    -13.132  0.2167E+02  0.1885E+03
    -13.118  0.2179E+02  0.1888E+03
    -13.104  0.2194E+02  0.1891E+03
    -13.090  0.2210E+02  0.1894E+03
    -13.076  0.2228E+02  0.1897E+03
    -13.062  0.2247E+02  0.1900E+03
    -13.048  0.2266E+02  0.1903E+03
    -13.034  0.2284E+02  0.1907E+03
    -13.020  0.2302E+02  0.1910E+03
    -13.006  0.2317E+02  0.1913E+03
    -12.992  0.2330E+02  0.1916E+03
    -12.978  0.2341E+02  0.1920E+03
    -12.964  0.2348E+02  0.1923E+03
    -12.950  0.2352E+02  0.1926E+03
    -12.936  0.2353E+02  0.1930E+03
    -12.922  0.2350E+02  0.1933E+03
    -12.908  0.2344E+02  0.1936E+03
    -12.894  0.2335E+02  0.1940E+03
    -12.880  0.2323E+02  0.1943E+03
    -12.866  0.2309E+02  0.1946E+03
    -12.852  0.2293E+02  0.1949E+03
    -12.838  0.2276E+02  0.1952E+03
    -12.824  0.2258E+02  0.1956E+03
    -12.809  0.2239E+02  0.1959E+03
    -12.795  0.2219E+02  0.1962E+03
    -12.781  0.2200E+02  0.1965E+03
    -12.767  0.2181E+02  0.1968E+03
    -12.753  0.2163E+02  0.1971E+03
    -12.739  0.2145E+02  0.1974E+03
    -12.725  0.2129E+02  0.1977E+03
    -12.711  0.2113E+02  0.1980E+03