 235 235   0   0
  0.4937897E+02  0.2795748E-08  0.2075305E-08  0.2000000E-08  0.5000000E-15
  1.000000000000000E-004
  CAR 
 unknown system                          
      3.29580119    -24.39570824 2000     -3.67897578      1.00000000
    -24.396  0.0000E+00  0.0000E+00
    -24.382  0.0000E+00  0.0000E+00
    -24.368  0.0000E+00  0.0000E+00
    -24.354  0.0000E+00  0.0000E+00
    -24.340  0.0000E+00  0.0000E+00
    -24.326  0.0000E+00  0.0000E+00
    -24.313  0.0000E+00  0.0000E+00
    -24.299  0.0000E+00  0.0000E+00
    -24.285  0.0000E+00  0.0000E+00
    -24.271  0.0000E+00  0.0000E+00
    -24.257  0.0000E+00  0.0000E+00
    -24.243  0.0000E+00  0.0000E+00
    -24.229  0.0000E+00  0.0000E+00
    -24.216  0.0000E+00  0.0000E+00
    -24.202  0.0000E+00  0.0000E+00
    -24.188  0.0000E+00  0.0000E+00
    -24.174  0.0000E+00  0.0000E+00
    -24.160  0.0000E+00  0.0000E+00
    -24.146  0.0000E+00  0.0000E+00
    -24.133  0.0000E+00  0.0000E+00
    -24.119  0.0000E+00  0.0000E+00
    -24.105  0.0000E+00  0.0000E+00
    -24.091  0.0000E+00  0.0000E+00
    -24.077  0.0000E+00  0.0000E+00
    -24.063  0.0000E+00  0.0000E+00
    -24.049  0.0000E+00  0.0000E+00
    -24.036  0.0000E+00  0.0000E+00
    -24.022  0.0000E+00  0.0000E+00
    -24.008  0.0000E+00  0.0000E+00
    -23.994  0.0000E+00  0.0000E+00
    -23.980  0.0000E+00  0.0000E+00
    -23.966  0.0000E+00  0.0000E+00
    -23.952  0.0000E+00  0.0000E+00
    -23.939  0.0000E+00  0.0000E+00
    -23.925  0.0000E+00  0.0000E+00
    -23.911  0.0000E+00  0.0000E+00
    -23.897  0.0000E+00  0.0000E+00
    -23.883  0.0000E+00  0.0000E+00
    -23.869  0.0000E+00  0.0000E+00
    -23.855  0.0000E+00  0.0000E+00
    -23.842  0.0000E+00  0.0000E+00
    -23.828  0.0000E+00  0.0000E+00
    -23.814  0.0000E+00  0.0000E+00
    -23.800  0.0000E+00  0.0000E+00
    -23.786  0.0000E+00  0.0000E+00
    -23.772  0.0000E+00  0.0000E+00
    -23.758  0.0000E+00  0.0000E+00
    -23.745  0.0000E+00  0.0000E+00
    -23.731  0.0000E+00  0.0000E+00
    -23.717  0.0000E+00  0.0000E+00
    -23.703  0.0000E+00  0.0000E+00
    -23.689  0.0000E+00  0.0000E+00
    -23.675  0.0000E+00  0.0000E+00
    -23.662  0.0000E+00  0.0000E+00
    -23.648  0.0000E+00  0.0000E+00
    -23.634  0.0000E+00  0.0000E+00
    -23.620  0.0000E+00  0.0000E+00
    -23.606  0.0000E+00  0.0000E+00
    -23.592  0.0000E+00  0.0000E+00
    -23.578  0.2671E-14  0.3701E-16
    -23.565  0.5343E-14  0.1110E-15
    -23.551  0.1069E-13  0.2591E-15
    -23.537  0.2404E-13  0.5921E-15
    -23.523  0.5343E-13  0.1332E-14
    -23.509  0.1149E-12  0.2924E-14
    -23.495  0.2538E-12  0.6439E-14
    -23.481  0.5343E-12  0.1384E-13
    -23.468  0.1146E-11  0.2972E-13
    -23.454  0.2404E-11  0.6302E-13
    -23.440  0.5014E-11  0.1325E-12
    -23.426  0.1035E-10  0.2759E-12
    -23.412  0.2115E-10  0.5688E-12
    -23.398  0.4283E-10  0.1162E-11
    -23.384  0.8588E-10  0.2352E-11
    -23.371  0.1706E-09  0.4715E-11
    -23.357  0.3356E-09  0.9364E-11
    -23.343  0.6540E-09  0.1842E-10
    -23.329  0.1262E-08  0.3591E-10
    -23.315  0.2413E-08  0.6934E-10
    -23.301  0.4569E-08  0.1326E-09
    -23.287  0.8569E-08  0.2513E-09
    -23.274  0.1592E-07  0.4718E-09
    -23.260  0.2929E-07  0.8775E-09
    -23.246  0.5337E-07  0.1617E-08
    -23.232  0.9633E-07  0.2951E-08
    -23.218  0.1722E-06  0.5337E-08
    -23.204  0.3050E-06  0.9562E-08
    -23.191  0.5349E-06  0.1697E-07
    -23.177  0.9292E-06  0.2984E-07
    -23.163  0.1599E-05  0.5199E-07
    -23.149  0.2725E-05  0.8974E-07
    -23.135  0.4600E-05  0.1535E-06
    -23.121  0.7692E-05  0.2600E-06
    -23.107  0.1274E-04  0.4365E-06
    -23.094  0.2090E-04  0.7260E-06
    -23.080  0.3396E-04  0.1196E-05
    -23.066  0.5466E-04  0.1954E-05
    -23.052  0.8714E-04  0.3161E-05
    -23.038  0.1376E-03  0.5067E-05
    -23.024  0.2152E-03  0.8048E-05
    -23.010  0.3334E-03  0.1267E-04
    -22.997  0.5117E-03  0.1976E-04
    -22.983  0.7779E-03  0.3053E-04
    -22.969  0.1171E-02  0.4676E-04
    -22.955  0.1747E-02  0.7096E-04
    -22.941  0.2582E-02  0.1067E-03
    -22.927  0.3778E-02  0.1591E-03
    -22.913  0.5478E-02  0.2350E-03
    -22.900  0.7868E-02  0.3439E-03
    -22.886  0.1119E-01  0.4990E-03
    -22.872  0.1578E-01  0.7176E-03
    -22.858  0.2203E-01  0.1023E-02
    -22.844  0.3047E-01  0.1445E-02
    -22.830  0.4176E-01  0.2023E-02
    -22.817  0.5670E-01  0.2809E-02
    -22.803  0.7626E-01  0.3865E-02
    -22.789  0.1016E+00  0.5273E-02
    -22.775  0.1342E+00  0.7132E-02
    -22.761  0.1756E+00  0.9564E-02
    -22.747  0.2276E+00  0.1272E-01
    -22.733  0.2923E+00  0.1677E-01
    -22.720  0.3721E+00  0.2192E-01
    -22.706  0.4694E+00  0.2842E-01
    -22.692  0.5867E+00  0.3655E-01
    -22.678  0.7269E+00  0.4662E-01
    -22.664  0.8926E+00  0.5899E-01
    -22.650  0.1086E+01  0.7403E-01
    -22.636  0.1311E+01  0.9219E-01
    -22.623  0.1567E+01  0.1139E+00
    -22.609  0.1858E+01  0.1396E+00
    -22.595  0.2184E+01  0.1699E+00
    -22.581  0.2546E+01  0.2052E+00
    -22.567  0.2943E+01  0.2459E+00
    -22.553  0.3373E+01  0.2927E+00
    -22.539  0.3836E+01  0.3458E+00
    -22.526  0.4326E+01  0.4057E+00
    -22.512  0.4840E+01  0.4728E+00
    -22.498  0.5374E+01  0.5472E+00
    -22.484  0.5921E+01  0.6292E+00
    -22.470  0.6475E+01  0.7189E+00
    -22.456  0.7029E+01  0.8163E+00
    -22.442  0.7577E+01  0.9213E+00
    -22.429  0.8112E+01  0.1034E+01
    -22.415  0.8627E+01  0.1153E+01
    -22.401  0.9118E+01  0.1279E+01
    -22.387  0.9577E+01  0.1412E+01
    -22.373  0.1000E+02  0.1551E+01
    -22.359  0.1039E+02  0.1695E+01
    -22.346  0.1075E+02  0.1844E+01
    -22.332  0.1106E+02  0.1997E+01
    -22.318  0.1135E+02  0.2154E+01
    -22.304  0.1160E+02  0.2315E+01
    -22.290  0.1183E+02  0.2479E+01
    -22.276  0.1204E+02  0.2645E+01
    -22.262  0.1224E+02  0.2815E+01
    -22.249  0.1245E+02  0.2987E+01
    -22.235  0.1266E+02  0.3163E+01
    -22.221  0.1289E+02  0.3341E+01
    -22.207  0.1315E+02  0.3523E+01
    -22.193  0.1344E+02  0.3710E+01
    -22.179  0.1378E+02  0.3901E+01
    -22.165  0.1418E+02  0.4097E+01
    -22.152  0.1463E+02  0.4300E+01
    -22.138  0.1514E+02  0.4510E+01
    -22.124  0.1572E+02  0.4727E+01
    -22.110  0.1635E+02  0.4954E+01
    -22.096  0.1704E+02  0.5190E+01
    -22.082  0.1779E+02  0.5436E+01
    -22.068  0.1858E+02  0.5694E+01
    -22.055  0.1941E+02  0.5962E+01
    -22.041  0.2026E+02  0.6243E+01
    -22.027  0.2112E+02  0.6536E+01
    -22.013  0.2199E+02  0.6840E+01
    -21.999  0.2285E+02  0.7157E+01
    -21.985  0.2368E+02  0.7485E+01
    -21.971  0.2448E+02  0.7824E+01
    -21.958  0.2524E+02  0.8173E+01
    -21.944  0.2594E+02  0.8533E+01
    -21.930  0.2658E+02  0.8901E+01
    -21.916  0.2716E+02  0.9277E+01
    -21.902  0.2768E+02  0.9661E+01
    -21.888  0.2813E+02  0.1005E+02
    -21.875  0.2851E+02  0.1045E+02
    -21.861  0.2884E+02  0.1084E+02
    -21.847  0.2911E+02  0.1125E+02
    -21.833  0.2933E+02  0.1165E+02
    -21.819  0.2952E+02  0.1206E+02
    -21.805  0.2967E+02  0.1247E+02
    -21.791  0.2980E+02  0.1289E+02
    -21.778  0.2991E+02  0.1330E+02
    -21.764  0.3001E+02  0.1372E+02
    -21.750  0.3011E+02  0.1413E+02
    -21.736  0.3021E+02  0.1455E+02
    -21.722  0.3032E+02  0.1497E+02
    -21.708  0.3044E+02  0.1539E+02
    -21.694  0.3057E+02  0.1582E+02
    -21.681  0.3071E+02  0.1624E+02
    -21.667  0.3086E+02  0.1667E+02
    -21.653  0.3103E+02  0.1710E+02
    -21.639  0.3120E+02  0.1753E+02
    -21.625  0.3138E+02  0.1797E+02
    -21.611  0.3156E+02  0.1840E+02
    -21.597  0.3175E+02  0.1884E+02
    -21.584  0.3194E+02  0.1929E+02
    -21.570  0.3213E+02  0.1973E+02
    -21.556  0.3231E+02  0.2018E+02
    -21.542  0.3249E+02  0.2063E+02
    -21.528  0.3267E+02  0.2108E+02
    -21.514  0.3285E+02  0.2154E+02
    -21.500  0.3302E+02  0.2200E+02
    -21.487  0.3319E+02  0.2245E+02
    -21.473  0.3336E+02  0.2292E+02
    -21.459  0.3353E+02  0.2338E+02
    -21.445  0.3370E+02  0.2385E+02
    -21.431  0.3388E+02  0.2432E+02
    -21.417  0.3405E+02  0.2479E+02
    -21.404  0.3423E+02  0.2526E+02
    -21.390  0.3440E+02  0.2574E+02
    -21.376  0.3459E+02  0.2622E+02
    -21.362  0.3477E+02  0.2670E+02
    -21.348  0.3495E+02  0.2719E+02
    -21.334  0.3514E+02  0.2767E+02
    -21.320  0.3532E+02  0.2816E+02
    -21.307  0.3551E+02  0.2865E+02
    -21.293  0.3569E+02  0.2915E+02
    -21.279  0.3587E+02  0.2964E+02
    -21.265  0.3605E+02  0.3014E+02
    -21.251  0.3624E+02  0.3065E+02
    -21.237  0.3642E+02  0.3115E+02
    -21.223  0.3660E+02  0.3166E+02
    -21.210  0.3679E+02  0.3217E+02
    -21.196  0.3698E+02  0.3268E+02
    -21.182  0.3718E+02  0.3319E+02
    -21.168  0.3738E+02  0.3371E+02
    -21.154  0.3760E+02  0.3423E+02
    -21.140  0.3783E+02  0.3476E+02
    -21.126  0.3807E+02  0.3528E+02
    -21.113  0.3832E+02  0.3582E+02
    -21.099  0.3858E+02  0.3635E+02
    -21.085  0.3884E+02  0.3689E+02
    -21.071  0.3910E+02  0.3743E+02
    -21.057  0.3935E+02  0.3797E+02
    -21.043  0.3960E+02  0.3852E+02
    -21.030  0.3982E+02  0.3907E+02
    -21.016  0.4003E+02  0.3963E+02
    -21.002  0.4020E+02  0.4019E+02
    -20.988  0.4034E+02  0.4074E+02
    -20.974  0.4043E+02  0.4130E+02
    -20.960  0.4046E+02  0.4187E+02
    -20.946  0.4045E+02  0.4243E+02
    -20.933  0.4037E+02  0.4298E+02
    -20.919  0.4023E+02  0.4354E+02
    -20.905  0.4003E+02  0.4410E+02
    -20.891  0.3976E+02  0.4465E+02
    -20.877  0.3942E+02  0.4519E+02
    -20.863  0.3903E+02  0.4573E+02
    -20.849  0.3857E+02  0.4627E+02
    -20.836  0.3806E+02  0.4680E+02
    -20.822  0.3749E+02  0.4732E+02
    -20.808  0.3689E+02  0.4783E+02
    -20.794  0.3625E+02  0.4833E+02
    -20.780  0.3559E+02  0.4882E+02
    -20.766  0.3491E+02  0.4930E+02
    -20.752  0.3423E+02  0.4978E+02
    -20.739  0.3355E+02  0.5024E+02
    -20.725  0.3289E+02  0.5070E+02
    -20.711  0.3226E+02  0.5115E+02
    -20.697  0.3166E+02  0.5158E+02
    -20.683  0.3112E+02  0.5202E+02
    -20.669  0.3062E+02  0.5244E+02
    -20.655  0.3020E+02  0.5286E+02
    -20.642  0.2984E+02  0.5327E+02
    -20.628  0.2957E+02  0.5368E+02
    -20.614  0.2937E+02  0.5409E+02
    -20.600  0.2926E+02  0.5449E+02
    -20.586  0.2923E+02  0.5490E+02
    -20.572  0.2929E+02  0.5530E+02
    -20.559  0.2943E+02  0.5571E+02
    -20.545  0.2965E+02  0.5612E+02
    -20.531  0.2994E+02  0.5654E+02
    -20.517  0.3031E+02  0.5696E+02
    -20.503  0.3073E+02  0.5738E+02
    -20.489  0.3120E+02  0.5782E+02
    -20.475  0.3171E+02  0.5825E+02
    -20.462  0.3225E+02  0.5870E+02
    -20.448  0.3282E+02  0.5916E+02
    -20.434  0.3339E+02  0.5962E+02
    -20.420  0.3396E+02  0.6009E+02
    -20.406  0.3451E+02  0.6057E+02
    -20.392  0.3505E+02  0.6105E+02
    -20.378  0.3556E+02  0.6154E+02
    -20.365  0.3604E+02  0.6204E+02
    -20.351  0.3647E+02  0.6255E+02
    -20.337  0.3686E+02  0.6306E+02
    -20.323  0.3720E+02  0.6358E+02
    -20.309  0.3750E+02  0.6409E+02
    -20.295  0.3774E+02  0.6462E+02
    -20.281  0.3795E+02  0.6514E+02
    -20.268  0.3810E+02  0.6567E+02
    -20.254  0.3822E+02  0.6620E+02
    -20.240  0.3830E+02  0.6673E+02
    -20.226  0.3835E+02  0.6726E+02
    -20.212  0.3838E+02  0.6779E+02
    -20.198  0.3838E+02  0.6833E+02
    -20.184  0.3836E+02  0.6886E+02
    -20.171  0.3832E+02  0.6939E+02
    -20.157  0.3827E+02  0.6992E+02
    -20.143  0.3822E+02  0.7045E+02
    -20.129  0.3815E+02  0.7098E+02
    -20.115  0.3809E+02  0.7150E+02
    -20.101  0.3802E+02  0.7203E+02
    -20.088  0.3795E+02  0.7256E+02
    -20.074  0.3787E+02  0.7308E+02
    -20.060  0.3780E+02  0.7360E+02
    -20.046  0.3773E+02  0.7413E+02
    -20.032  0.3766E+02  0.7465E+02
    -20.018  0.3758E+02  0.7517E+02
    -20.004  0.3751E+02  0.7569E+02
    -19.991  0.3744E+02  0.7621E+02
    -19.977  0.3737E+02  0.7673E+02
    -19.963  0.3730E+02  0.7724E+02
    -19.949  0.3724E+02  0.7776E+02
    -19.935  0.3717E+02  0.7827E+02
    -19.921  0.3712E+02  0.7879E+02
    -19.907  0.3706E+02  0.7930E+02
    -19.894  0.3701E+02  0.7981E+02
    -19.880  0.3697E+02  0.8033E+02
    -19.866  0.3694E+02  0.8084E+02
    -19.852  0.3691E+02  0.8135E+02
    -19.838  0.3690E+02  0.8186E+02
    -19.824  0.3690E+02  0.8237E+02
    -19.810  0.3691E+02  0.8288E+02
    -19.797  0.3692E+02  0.8339E+02
    -19.783  0.3695E+02  0.8391E+02
    -19.769  0.3699E+02  0.8442E+02
    -19.755  0.3703E+02  0.8493E+02
    -19.741  0.3709E+02  0.8544E+02
    -19.727  0.3714E+02  0.8596E+02
    -19.714  0.3720E+02  0.8647E+02
    -19.700  0.3726E+02  0.8699E+02
    -19.686  0.3732E+02  0.8751E+02
    -19.672  0.3737E+02  0.8802E+02
    -19.658  0.3741E+02  0.8854E+02
    -19.644  0.3745E+02  0.8906E+02
    -19.630  0.3747E+02  0.8958E+02
    -19.617  0.3748E+02  0.9010E+02
    -19.603  0.3747E+02  0.9062E+02
    -19.589  0.3745E+02  0.9114E+02
    -19.575  0.3741E+02  0.9166E+02
    -19.561  0.3735E+02  0.9217E+02
    -19.547  0.3728E+02  0.9269E+02
    -19.533  0.3719E+02  0.9321E+02
    -19.520  0.3709E+02  0.9372E+02
    -19.506  0.3698E+02  0.9423E+02
    -19.492  0.3687E+02  0.9474E+02
    -19.478  0.3674E+02  0.9525E+02
    -19.464  0.3662E+02  0.9576E+02
    -19.450  0.3651E+02  0.9626E+02
    -19.436  0.3640E+02  0.9677E+02
    -19.423  0.3631E+02  0.9727E+02
    -19.409  0.3623E+02  0.9777E+02
    -19.395  0.3618E+02  0.9827E+02
    -19.381  0.3616E+02  0.9878E+02
    -19.367  0.3616E+02  0.9928E+02
    -19.353  0.3620E+02  0.9978E+02
    -19.339  0.3628E+02  0.1003E+03
    -19.326  0.3639E+02  0.1008E+03
    -19.312  0.3653E+02  0.1013E+03
    -19.298  0.3671E+02  0.1018E+03
    -19.284  0.3693E+02  0.1023E+03
    -19.270  0.3717E+02  0.1028E+03
    -19.256  0.3745E+02  0.1033E+03
    -19.243  0.3774E+02  0.1039E+03
    -19.229  0.3806E+02  0.1044E+03
    -19.215  0.3839E+02  0.1049E+03
    -19.201  0.3873E+02  0.1055E+03
    -19.187  0.3907E+02  0.1060E+03
    -19.173  0.3941E+02  0.1065E+03
    -19.159  0.3974E+02  0.1071E+03
    -19.146  0.4006E+02  0.1077E+03
    -19.132  0.4036E+02  0.1082E+03
    -19.118  0.4065E+02  0.1088E+03
    -19.104  0.4091E+02  0.1093E+03
    -19.090  0.4114E+02  0.1099E+03
    -19.076  0.4135E+02  0.1105E+03
    -19.062  0.4153E+02  0.1111E+03
    -19.049  0.4168E+02  0.1116E+03
    -19.035  0.4180E+02  0.1122E+03
    -19.021  0.4190E+02  0.1128E+03
    -19.007  0.4196E+02  0.1134E+03
    -18.993  0.4200E+02  0.1140E+03
    -18.979  0.4202E+02  0.1145E+03
    -18.965  0.4201E+02  0.1151E+03
    -18.952  0.4198E+02  0.1157E+03
    -18.938  0.4192E+02  0.1163E+03
    -18.924  0.4185E+02  0.1169E+03
    -18.910  0.4176E+02  0.1174E+03
    -18.896  0.4165E+02  0.1180E+03
    -18.882  0.4153E+02  0.1186E+03
    -18.868  0.4139E+02  0.1192E+03
    -18.855  0.4123E+02  0.1197E+03
    -18.841  0.4106E+02  0.1203E+03
    -18.827  0.4088E+02  0.1209E+03
    -18.813  0.4069E+02  0.1214E+03
    -18.799  0.4049E+02  0.1220E+03
    -18.785  0.4029E+02  0.1226E+03
    -18.772  0.4009E+02  0.1231E+03
    -18.758  0.3989E+02  0.1237E+03
    -18.744  0.3969E+02  0.1242E+03
    -18.730  0.3950E+02  0.1248E+03
    -18.716  0.3933E+02  0.1253E+03
    -18.702  0.3918E+02  0.1259E+03
    -18.688  0.3904E+02  0.1264E+03
    -18.675  0.3893E+02  0.1269E+03
    -18.661  0.3885E+02  0.1275E+03
    -18.647  0.3879E+02  0.1280E+03
    -18.633  0.3875E+02  0.1285E+03
    -18.619  0.3875E+02  0.1291E+03
    -18.605  0.3876E+02  0.1296E+03
    -18.591  0.3880E+02  0.1302E+03
    -18.578  0.3885E+02  0.1307E+03
    -18.564  0.3892E+02  0.1312E+03
    -18.550  0.3899E+02  0.1318E+03
    -18.536  0.3907E+02  0.1323E+03
    -18.522  0.3915E+02  0.1329E+03
    -18.508  0.3923E+02  0.1334E+03
    -18.494  0.3929E+02  0.1339E+03
    -18.481  0.3935E+02  0.1345E+03
    -18.467  0.3939E+02  0.1350E+03
    -18.453  0.3942E+02  0.1356E+03
    -18.439  0.3942E+02  0.1361E+03
    -18.425  0.3941E+02  0.1367E+03
    -18.411  0.3939E+02  0.1372E+03
    -18.397  0.3935E+02  0.1378E+03
    -18.384  0.3929E+02  0.1383E+03
    -18.370  0.3923E+02  0.1389E+03
    -18.356  0.3916E+02  0.1394E+03
    -18.342  0.3909E+02  0.1399E+03
    -18.328  0.3901E+02  0.1405E+03
    -18.314  0.3895E+02  0.1410E+03
    -18.301  0.3889E+02  0.1416E+03
    -18.287  0.3885E+02  0.1421E+03
    -18.273  0.3883E+02  0.1426E+03
    -18.259  0.3882E+02  0.1432E+03
    -18.245  0.3884E+02  0.1437E+03
    -18.231  0.3889E+02  0.1442E+03
    -18.217  0.3896E+02  0.1448E+03
    -18.204  0.3905E+02  0.1453E+03
    -18.190  0.3918E+02  0.1459E+03
    -18.176  0.3932E+02  0.1464E+03
    -18.162  0.3949E+02  0.1470E+03
    -18.148  0.3968E+02  0.1475E+03
    -18.134  0.3988E+02  0.1481E+03
    -18.120  0.4009E+02  0.1486E+03
    -18.107  0.4031E+02  0.1492E+03
    -18.093  0.4053E+02  0.1497E+03
    -18.079  0.4075E+02  0.1503E+03
    -18.065  0.4096E+02  0.1509E+03
    -18.051  0.4116E+02  0.1514E+03
    -18.037  0.4135E+02  0.1520E+03
    -18.023  0.4151E+02  0.1526E+03
    -18.010  0.4166E+02  0.1532E+03
    -17.996  0.4179E+02  0.1537E+03
    -17.982  0.4190E+02  0.1543E+03
    -17.968  0.4198E+02  0.1549E+03
    -17.954  0.4205E+02  0.1555E+03
    -17.940  0.4209E+02  0.1561E+03
    -17.927  0.4212E+02  0.1567E+03
    -17.913  0.4214E+02  0.1572E+03
    -17.899  0.4215E+02  0.1578E+03
    -17.885  0.4214E+02  0.1584E+03
    -17.871  0.4213E+02  0.1590E+03
    -17.857  0.4212E+02  0.1596E+03
    -17.843  0.4210E+02  0.1602E+03
    -17.830  0.4208E+02  0.1607E+03
    -17.816  0.4206E+02  0.1613E+03
    -17.802  0.4203E+02  0.1619E+03
    -17.788  0.4200E+02  0.1625E+03
    -17.774  0.4196E+02  0.1631E+03
    -17.760  0.4192E+02  0.1636E+03
    -17.746  0.4187E+02  0.1642E+03
    -17.733  0.4181E+02  0.1648E+03
    -17.719  0.4174E+02  0.1654E+03
    -17.705  0.4165E+02  0.1660E+03
    -17.691  0.4155E+02  0.1665E+03
    -17.677  0.4144E+02  0.1671E+03
    -17.663  0.4131E+02  0.1677E+03
    -17.649  0.4117E+02  0.1683E+03
    -17.636  0.4102E+02  0.1688E+03
    -17.622  0.4085E+02  0.1694E+03
    -17.608  0.4068E+02  0.1700E+03
    -17.594  0.4049E+02  0.1705E+03
    -17.580  0.4029E+02  0.1711E+03
    -17.566  0.4009E+02  0.1716E+03
    -17.552  0.3988E+02  0.1722E+03
    -17.539  0.3967E+02  0.1727E+03
    -17.525  0.3945E+02  0.1733E+03
    -17.511  0.3923E+02  0.1738E+03
    -17.497  0.3901E+02  0.1744E+03
    -17.483  0.3879E+02  0.1749E+03
    -17.469  0.3856E+02  0.1754E+03
    -17.456  0.3834E+02  0.1760E+03
    -17.442  0.3813E+02  0.1765E+03
    -17.428  0.3791E+02  0.1770E+03
    -17.414  0.3771E+02  0.1775E+03
    -17.400  0.3752E+02  0.1781E+03
    -17.386  0.3734E+02  0.1786E+03
    -17.372  0.3717E+02  0.1791E+03
    -17.359  0.3702E+02  0.1796E+03
    -17.345  0.3689E+02  0.1801E+03
    -17.331  0.3679E+02  0.1806E+03
    -17.317  0.3671E+02  0.1811E+03
    -17.303  0.3666E+02  0.1816E+03
    -17.289  0.3663E+02  0.1821E+03
    -17.275  0.3663E+02  0.1827E+03
    -17.262  0.3667E+02  0.1832E+03
    -17.248  0.3673E+02  0.1837E+03
    -17.234  0.3682E+02  0.1842E+03
    -17.220  0.3693E+02  0.1847E+03
    -17.206  0.3707E+02  0.1852E+03
    -17.192  0.3722E+02  0.1857E+03
    -17.178  0.3739E+02  0.1862E+03
    -17.165  0.3757E+02  0.1868E+03
    -17.151  0.3775E+02  0.1873E+03
    -17.137  0.3793E+02  0.1878E+03
    -17.123  0.3810E+02  0.1883E+03
    -17.109  0.3826E+02  0.1889E+03
    -17.095  0.3840E+02  0.1894E+03
    -17.081  0.3852E+02  0.1899E+03
    -17.068  0.3861E+02  0.1905E+03
    -17.054  0.3866E+02  0.1910E+03
    -17.040  0.3869E+02  0.1915E+03
    -17.026  0.3867E+02  0.1921E+03
    -17.012  0.3862E+02  0.1926E+03
    -16.998  0.3853E+02  0.1931E+03
    -16.985  0.3840E+02  0.1937E+03
    -16.971  0.3822E+02  0.1942E+03
    -16.957  0.3801E+02  0.1947E+03
    -16.943  0.3777E+02  0.1953E+03
    -16.929  0.3749E+02  0.1958E+03
    -16.915  0.3718E+02  0.1963E+03
    -16.901  0.3684E+02  0.1968E+03
    -16.888  0.3648E+02  0.1973E+03
    -16.874  0.3610E+02  0.1978E+03
    -16.860  0.3569E+02  0.1983E+03
    -16.846  0.3528E+02  0.1988E+03
    -16.832  0.3485E+02  0.1993E+03
    -16.818  0.3441E+02  0.1997E+03
    -16.804  0.3398E+02  0.2002E+03
    -16.791  0.3355E+02  0.2007E+03
    -16.777  0.3312E+02  0.2011E+03
    -16.763  0.3271E+02  0.2016E+03
    -16.749  0.3232E+02  0.2020E+03
    -16.735  0.3196E+02  0.2025E+03
    -16.721  0.3162E+02  0.2029E+03
    -16.707  0.3132E+02  0.2034E+03
    -16.694  0.3107E+02  0.2038E+03
    -16.680  0.3086E+02  0.2042E+03
    -16.666  0.3070E+02  0.2046E+03
    -16.652  0.3060E+02  0.2051E+03
    -16.638  0.3055E+02  0.2055E+03
    -16.624  0.3057E+02  0.2059E+03
    -16.611  0.3064E+02  0.2063E+03
    -16.597  0.3077E+02  0.2068E+03
    -16.583  0.3095E+02  0.2072E+03
    -16.569  0.3119E+02  0.2076E+03
    -16.555  0.3148E+02  0.2081E+03
    -16.541  0.3180E+02  0.2085E+03
    -16.527  0.3216E+02  0.2089E+03
    -16.514  0.3255E+02  0.2094E+03
    -16.500  0.3295E+02  0.2099E+03
    -16.486  0.3337E+02  0.2103E+03
    -16.472  0.3379E+02  0.2108E+03
    -16.458  0.3420E+02  0.2113E+03
    -16.444  0.3461E+02  0.2117E+03
    -16.430  0.3501E+02  0.2122E+03
    -16.417  0.3538E+02  0.2127E+03
    -16.403  0.3574E+02  0.2132E+03
    -16.389  0.3607E+02  0.2137E+03
    -16.375  0.3638E+02  0.2142E+03
    -16.361  0.3666E+02  0.2147E+03
    -16.347  0.3692E+02  0.2152E+03
    -16.333  0.3716E+02  0.2157E+03
    -16.320  0.3738E+02  0.2163E+03
    -16.306  0.3758E+02  0.2168E+03
    -16.292  0.3776E+02  0.2173E+03
    -16.278  0.3793E+02  0.2178E+03
    -16.264  0.3808E+02  0.2184E+03
    -16.250  0.3822E+02  0.2189E+03
    -16.236  0.3834E+02  0.2194E+03
    -16.223  0.3845E+02  0.2200E+03
    -16.209  0.3854E+02  0.2205E+03
    -16.195  0.3862E+02  0.2210E+03
    -16.181  0.3868E+02  0.2216E+03
    -16.167  0.3872E+02  0.2221E+03
    -16.153  0.3874E+02  0.2226E+03
    -16.140  0.3873E+02  0.2232E+03
    -16.126  0.3871E+02  0.2237E+03
    -16.112  0.3866E+02  0.2242E+03
    -16.098  0.3858E+02  0.2248E+03
    -16.084  0.3849E+02  0.2253E+03
    -16.070  0.3838E+02  0.2258E+03
    -16.056  0.3825E+02  0.2264E+03
    -16.043  0.3810E+02  0.2269E+03
    -16.029  0.3795E+02  0.2274E+03
    -16.015  0.3779E+02  0.2279E+03
    -16.001  0.3763E+02  0.2285E+03
    -15.987  0.3748E+02  0.2290E+03
    -15.973  0.3733E+02  0.2295E+03
    -15.959  0.3721E+02  0.2300E+03
    -15.946  0.3710E+02  0.2305E+03
    -15.932  0.3703E+02  0.2310E+03
    -15.918  0.3698E+02  0.2316E+03
    -15.904  0.3697E+02  0.2321E+03
    -15.890  0.3700E+02  0.2326E+03
    -15.876  0.3706E+02  0.2331E+03
    -15.862  0.3717E+02  0.2336E+03
    -15.849  0.3732E+02  0.2341E+03
    -15.835  0.3750E+02  0.2346E+03
    -15.821  0.3772E+02  0.2352E+03
    -15.807  0.3796E+02  0.2357E+03
    -15.793  0.3824E+02  0.2362E+03
    -15.779  0.3853E+02  0.2368E+03
    -15.765  0.3883E+02  0.2373E+03
    -15.752  0.3914E+02  0.2378E+03
    -15.738  0.3944E+02  0.2384E+03
    -15.724  0.3974E+02  0.2389E+03
    -15.710  0.4001E+02  0.2395E+03
    -15.696  0.4026E+02  0.2400E+03
    -15.682  0.4048E+02  0.2406E+03
    -15.669  0.4067E+02  0.2412E+03
    -15.655  0.4081E+02  0.2417E+03
    -15.641  0.4091E+02  0.2423E+03
    -15.627  0.4096E+02  0.2429E+03
    -15.613  0.4096E+02  0.2434E+03
    -15.599  0.4092E+02  0.2440E+03
    -15.585  0.4083E+02  0.2446E+03
    -15.572  0.4070E+02  0.2451E+03
    -15.558  0.4052E+02  0.2457E+03
    -15.544  0.4032E+02  0.2463E+03
    -15.530  0.4009E+02  0.2468E+03
    -15.516  0.3983E+02  0.2474E+03
    -15.502  0.3956E+02  0.2479E+03
    -15.488  0.3928E+02  0.2485E+03
    -15.475  0.3900E+02  0.2490E+03
    -15.461  0.3873E+02  0.2495E+03
    -15.447  0.3846E+02  0.2501E+03
    -15.433  0.3820E+02  0.2506E+03
    -15.419  0.3797E+02  0.2511E+03
    -15.405  0.3775E+02  0.2516E+03
    -15.391  0.3756E+02  0.2522E+03
    -15.378  0.3740E+02  0.2527E+03
    -15.364  0.3726E+02  0.2532E+03
    -15.350  0.3715E+02  0.2537E+03
    -15.336  0.3706E+02  0.2542E+03
    -15.322  0.3700E+02  0.2547E+03
    -15.308  0.3696E+02  0.2552E+03
    -15.294  0.3694E+02  0.2558E+03
    -15.281  0.3695E+02  0.2563E+03
    -15.267  0.3698E+02  0.2568E+03
    -15.253  0.3703E+02  0.2573E+03
    -15.239  0.3710E+02  0.2578E+03
    -15.225  0.3718E+02  0.2583E+03
    -15.211  0.3729E+02  0.2588E+03
    -15.198  0.3742E+02  0.2594E+03
    -15.184  0.3757E+02  0.2599E+03
    -15.170  0.3773E+02  0.2604E+03
    -15.156  0.3791E+02  0.2609E+03
    -15.142  0.3810E+02  0.2615E+03
    -15.128  0.3831E+02  0.2620E+03
    -15.114  0.3852E+02  0.2625E+03
    -15.101  0.3875E+02  0.2631E+03
    -15.087  0.3897E+02  0.2636E+03
    -15.073  0.3919E+02  0.2641E+03
    -15.059  0.3940E+02  0.2647E+03
    -15.045  0.3960E+02  0.2652E+03
    -15.031  0.3979E+02  0.2658E+03
    -15.017  0.3996E+02  0.2663E+03
    -15.004  0.4010E+02  0.2669E+03
    -14.990  0.4022E+02  0.2675E+03
    -14.976  0.4032E+02  0.2680E+03
    -14.962  0.4039E+02  0.2686E+03
    -14.948  0.4043E+02  0.2691E+03
    -14.934  0.4045E+02  0.2697E+03
    -14.920  0.4045E+02  0.2702E+03
    -14.907  0.4042E+02  0.2708E+03
    -14.893  0.4039E+02  0.2714E+03
    -14.879  0.4034E+02  0.2719E+03
    -14.865  0.4029E+02  0.2725E+03
    -14.851  0.4024E+02  0.2730E+03
    -14.837  0.4019E+02  0.2736E+03
    -14.824  0.4015E+02  0.2742E+03
    -14.810  0.4011E+02  0.2747E+03
    -14.796  0.4009E+02  0.2753E+03
    -14.782  0.4009E+02  0.2758E+03
    -14.768  0.4010E+02  0.2764E+03
    -14.754  0.4012E+02  0.2769E+03
    -14.740  0.4016E+02  0.2775E+03
    -14.727  0.4022E+02  0.2780E+03
    -14.713  0.4028E+02  0.2786E+03
    -14.699  0.4034E+02  0.2792E+03
    -14.685  0.4041E+02  0.2797E+03
    -14.671  0.4047E+02  0.2803E+03
    -14.657  0.4052E+02  0.2808E+03
    -14.643  0.4056E+02  0.2814E+03
    -14.630  0.4058E+02  0.2820E+03
    -14.616  0.4058E+02  0.2825E+03
    -14.602  0.4055E+02  0.2831E+03
    -14.588  0.4050E+02  0.2837E+03
    -14.574  0.4042E+02  0.2842E+03
    -14.560  0.4032E+02  0.2848E+03
    -14.546  0.4019E+02  0.2853E+03
    -14.533  0.4003E+02  0.2859E+03
    -14.519  0.3986E+02  0.2864E+03
    -14.505  0.3968E+02  0.2870E+03
    -14.491  0.3949E+02  0.2875E+03
    -14.477  0.3931E+02  0.2881E+03
    -14.463  0.3912E+02  0.2886E+03
    -14.449  0.3896E+02  0.2892E+03
    -14.436  0.3881E+02  0.2897E+03
    -14.422  0.3868E+02  0.2902E+03
    -14.408  0.3859E+02  0.2908E+03
    -14.394  0.3853E+02  0.2913E+03
    -14.380  0.3851E+02  0.2918E+03
    -14.366  0.3854E+02  0.2924E+03
    -14.353  0.3860E+02  0.2929E+03
    -14.339  0.3870E+02  0.2934E+03
    -14.325  0.3885E+02  0.2940E+03
    -14.311  0.3903E+02  0.2945E+03
    -14.297  0.3924E+02  0.2951E+03
    -14.283  0.3948E+02  0.2956E+03
    -14.269  0.3975E+02  0.2962E+03
    -14.256  0.4003E+02  0.2967E+03
    -14.242  0.4032E+02  0.2973E+03
    -14.228  0.4062E+02  0.2978E+03
    -14.214  0.4091E+02  0.2984E+03
    -14.200  0.4120E+02  0.2990E+03
    -14.186  0.4148E+02  0.2995E+03
    -14.172  0.4174E+02  0.3001E+03
    -14.159  0.4197E+02  0.3007E+03
    -14.145  0.4218E+02  0.3013E+03
    -14.131  0.4237E+02  0.3019E+03
    -14.117  0.4253E+02  0.3025E+03
    -14.103  0.4265E+02  0.3031E+03
    -14.089  0.4275E+02  0.3037E+03
    -14.075  0.4282E+02  0.3042E+03
    -14.062  0.4287E+02  0.3048E+03
    -14.048  0.4289E+02  0.3054E+03
    -14.034  0.4289E+02  0.3060E+03
    -14.020  0.4287E+02  0.3066E+03
    -14.006  0.4284E+02  0.3072E+03
    -13.992  0.4279E+02  0.3078E+03
    -13.978  0.4274E+02  0.3084E+03
    -13.965  0.4269E+02  0.3090E+03
    -13.951  0.4264E+02  0.3096E+03
    -13.937  0.4259E+02  0.3102E+03
    -13.923  0.4254E+02  0.3108E+03
    -13.909  0.4251E+02  0.3113E+03
    -13.895  0.4248E+02  0.3119E+03
    -13.882  0.4247E+02  0.3125E+03
    -13.868  0.4247E+02  0.3131E+03
    -13.854  0.4248E+02  0.3137E+03
    -13.840  0.4251E+02  0.3143E+03
    -13.826  0.4254E+02  0.3149E+03
    -13.812  0.4257E+02  0.3155E+03
    -13.798  0.4261E+02  0.3161E+03
    -13.785  0.4265E+02  0.3167E+03
    -13.771  0.4268E+02  0.3172E+03
    -13.757  0.4270E+02  0.3178E+03
    -13.743  0.4271E+02  0.3184E+03
    -13.729  0.4269E+02  0.3190E+03
    -13.715  0.4265E+02  0.3196E+03
    -13.701  0.4258E+02  0.3202E+03
    -13.688  0.4249E+02  0.3208E+03
    -13.674  0.4236E+02  0.3214E+03
    -13.660  0.4220E+02  0.3220E+03
    -13.646  0.4201E+02  0.3225E+03
    -13.632  0.4179E+02  0.3231E+03
    -13.618  0.4155E+02  0.3237E+03
    -13.604  0.4128E+02  0.3243E+03
    -13.591  0.4100E+02  0.3248E+03
    -13.577  0.4070E+02  0.3254E+03
    -13.563  0.4040E+02  0.3260E+03
    -13.549  0.4009E+02  0.3265E+03
    -13.535  0.3978E+02  0.3271E+03
    -13.521  0.3948E+02  0.3276E+03
    -13.508  0.3920E+02  0.3282E+03
    -13.494  0.3893E+02  0.3287E+03
    -13.480  0.3869E+02  0.3292E+03
    -13.466  0.3847E+02  0.3298E+03
    -13.452  0.3828E+02  0.3303E+03
    -13.438  0.3812E+02  0.3308E+03
    -13.424  0.3800E+02  0.3313E+03
    -13.411  0.3791E+02  0.3319E+03
    -13.397  0.3786E+02  0.3324E+03
    -13.383  0.3784E+02  0.3329E+03
    -13.369  0.3785E+02  0.3334E+03
    -13.355  0.3790E+02  0.3340E+03
    -13.341  0.3797E+02  0.3345E+03
    -13.327  0.3807E+02  0.3350E+03
    -13.314  0.3820E+02  0.3356E+03
    -13.300  0.3834E+02  0.3361E+03
    -13.286  0.3849E+02  0.3366E+03
    -13.272  0.3865E+02  0.3372E+03
    -13.258  0.3882E+02  0.3377E+03
    -13.244  0.3898E+02  0.3382E+03
    -13.230  0.3913E+02  0.3388E+03
    -13.217  0.3927E+02  0.3393E+03
    -13.203  0.3939E+02  0.3399E+03
    -13.189  0.3949E+02  0.3404E+03
    -13.175  0.3956E+02  0.3410E+03
    -13.161  0.3961E+02  0.3415E+03
    -13.147  0.3963E+02  0.3421E+03
    -13.133  0.3962E+02  0.3426E+03
    -13.120  0.3960E+02  0.3432E+03
    -13.106  0.3955E+02  0.3437E+03
    -13.092  0.3948E+02  0.3442E+03
    -13.078  0.3941E+02  0.3448E+03
    -13.064  0.3933E+02  0.3453E+03
    -13.050  0.3925E+02  0.3459E+03
    -13.037  0.3918E+02  0.3464E+03
    -13.023  0.3913E+02  0.3470E+03
    -13.009  0.3910E+02  0.3475E+03
    -12.995  0.3909E+02  0.3480E+03
    -12.981  0.3912E+02  0.3486E+03
    -12.967  0.3918E+02  0.3491E+03