 134 134   0   0
  0.2736666E+02  0.2130000E-08  0.1721659E-08  0.1000000E-08  0.5000000E-15
  1.000000000000000E-004
  CAR 
 unknown system                          
      5.49303195    -24.16025802 2000     -1.51128759      1.00000000
    -24.160  0.0000E+00  0.0000E+00
    -24.145  0.0000E+00  0.0000E+00
    -24.131  0.0000E+00  0.0000E+00
    -24.116  0.0000E+00  0.0000E+00
    -24.101  0.0000E+00  0.0000E+00
    -24.086  0.0000E+00  0.0000E+00
    -24.071  0.0000E+00  0.0000E+00
    -24.056  0.0000E+00  0.0000E+00
    -24.042  0.0000E+00  0.0000E+00
    -24.027  0.0000E+00  0.0000E+00
    -24.012  0.0000E+00  0.0000E+00
    -23.997  0.0000E+00  0.0000E+00
    -23.982  0.0000E+00  0.0000E+00
    -23.967  0.0000E+00  0.0000E+00
    -23.953  0.0000E+00  0.0000E+00
    -23.938  0.0000E+00  0.0000E+00
    -23.923  0.0000E+00  0.0000E+00
    -23.908  0.0000E+00  0.0000E+00
    -23.893  0.0000E+00  0.0000E+00
    -23.878  0.0000E+00  0.0000E+00
    -23.864  0.0000E+00  0.0000E+00
    -23.849  0.0000E+00  0.0000E+00
    -23.834  0.0000E+00  0.0000E+00
    -23.819  0.0000E+00  0.0000E+00
    -23.804  0.0000E+00  0.0000E+00
    -23.789  0.0000E+00  0.0000E+00
    -23.775  0.0000E+00  0.0000E+00
    -23.760  0.0000E+00  0.0000E+00
    -23.745  0.0000E+00  0.0000E+00
    -23.730  0.0000E+00  0.0000E+00
    -23.715  0.0000E+00  0.0000E+00
    -23.700  0.0000E+00  0.0000E+00
    -23.686  0.0000E+00  0.0000E+00
    -23.671  0.0000E+00  0.0000E+00
    -23.656  0.0000E+00  0.0000E+00
    -23.641  0.0000E+00  0.0000E+00
    -23.626  0.0000E+00  0.0000E+00
    -23.611  0.0000E+00  0.0000E+00
    -23.597  0.0000E+00  0.0000E+00
    -23.582  0.0000E+00  0.0000E+00
    -23.567  0.0000E+00  0.0000E+00
    -23.552  0.0000E+00  0.0000E+00
    -23.537  0.0000E+00  0.0000E+00
    -23.522  0.0000E+00  0.0000E+00
    -23.508  0.0000E+00  0.0000E+00
    -23.493  0.0000E+00  0.0000E+00
    -23.478  0.0000E+00  0.0000E+00
    -23.463  0.0000E+00  0.0000E+00
    -23.448  0.0000E+00  0.0000E+00
    -23.433  0.0000E+00  0.0000E+00
    -23.419  0.0000E+00  0.0000E+00
    -23.404  0.0000E+00  0.0000E+00
    -23.389  0.0000E+00  0.0000E+00
    -23.374  0.0000E+00  0.0000E+00
    -23.359  0.0000E+00  0.0000E+00
    -23.344  0.5821E-14  0.8635E-16
    -23.330  0.1663E-14  0.1110E-15
    -23.315  0.1497E-13  0.3331E-15
    -23.300  0.2994E-13  0.7772E-15
    -23.285  0.6736E-13  0.1776E-14
    -23.270  0.1613E-12  0.4170E-14
    -23.255  0.3651E-12  0.9585E-14
    -23.241  0.8208E-12  0.2176E-13
    -23.226  0.1829E-11  0.4890E-13
    -23.211  0.4030E-11  0.1087E-12
    -23.196  0.8777E-11  0.2389E-12
    -23.181  0.1892E-10  0.5195E-12
    -23.166  0.4030E-10  0.1117E-11
    -23.152  0.8496E-10  0.2378E-11
    -23.137  0.1771E-09  0.5005E-11
    -23.122  0.3652E-09  0.1042E-10
    -23.107  0.7448E-09  0.2147E-10
    -23.092  0.1502E-08  0.4376E-10
    -23.077  0.2998E-08  0.8822E-10
    -23.063  0.5915E-08  0.1760E-09
    -23.048  0.1154E-07  0.3472E-09
    -23.033  0.2228E-07  0.6778E-09
    -23.018  0.4255E-07  0.1309E-08
    -23.003  0.8035E-07  0.2501E-08
    -22.988  0.1501E-06  0.4727E-08
    -22.974  0.2772E-06  0.8839E-08
    -22.959  0.5065E-06  0.1635E-07
    -22.944  0.9154E-06  0.2993E-07
    -22.929  0.1636E-05  0.5420E-07
    -22.914  0.2893E-05  0.9711E-07
    -22.899  0.5058E-05  0.1721E-06
    -22.885  0.8747E-05  0.3019E-06
    -22.870  0.1496E-04  0.5238E-06
    -22.855  0.2531E-04  0.8993E-06
    -22.840  0.4236E-04  0.1528E-05
    -22.825  0.7010E-04  0.2568E-05
    -22.810  0.1148E-03  0.4270E-05
    -22.796  0.1858E-03  0.7026E-05
    -22.781  0.2975E-03  0.1144E-04
    -22.766  0.4712E-03  0.1843E-04
    -22.751  0.7382E-03  0.2938E-04
    -22.736  0.1144E-02  0.4634E-04
    -22.721  0.1753E-02  0.7234E-04
    -22.707  0.2657E-02  0.1118E-03
    -22.692  0.3983E-02  0.1708E-03
    -22.677  0.5905E-02  0.2584E-03
    -22.662  0.8660E-02  0.3869E-03
    -22.647  0.1256E-01  0.5732E-03
    -22.632  0.1802E-01  0.8405E-03
    -22.618  0.2557E-01  0.1220E-02
    -22.603  0.3589E-01  0.1752E-02
    -22.588  0.4982E-01  0.2491E-02
    -22.573  0.6839E-01  0.3506E-02
    -22.558  0.9287E-01  0.4883E-02
    -22.543  0.1247E+00  0.6734E-02
    -22.529  0.1657E+00  0.9192E-02
    -22.514  0.2177E+00  0.1242E-01
    -22.499  0.2829E+00  0.1662E-01
    -22.484  0.3636E+00  0.2201E-01
    -22.469  0.4623E+00  0.2887E-01
    -22.454  0.5812E+00  0.3749E-01
    -22.440  0.7228E+00  0.4821E-01
    -22.425  0.8891E+00  0.6140E-01
    -22.410  0.1082E+01  0.7745E-01
    -22.395  0.1301E+01  0.9675E-01
    -22.380  0.1549E+01  0.1197E+00
    -22.365  0.1823E+01  0.1468E+00
    -22.351  0.2123E+01  0.1783E+00
    -22.336  0.2444E+01  0.2145E+00
    -22.321  0.2784E+01  0.2558E+00
    -22.306  0.3136E+01  0.3023E+00
    -22.291  0.3494E+01  0.3542E+00
    -22.276  0.3850E+01  0.4113E+00
    -22.261  0.4196E+01  0.4735E+00
    -22.247  0.4524E+01  0.5406E+00
    -22.232  0.4823E+01  0.6122E+00
    -22.217  0.5086E+01  0.6876E+00
    -22.202  0.5305E+01  0.7663E+00
    -22.187  0.5473E+01  0.8475E+00
    -22.172  0.5585E+01  0.9303E+00
    -22.158  0.5636E+01  0.1014E+01
    -22.143  0.5626E+01  0.1097E+01
    -22.128  0.5554E+01  0.1180E+01
    -22.113  0.5424E+01  0.1260E+01
    -22.098  0.5239E+01  0.1338E+01
    -22.083  0.5005E+01  0.1412E+01
    -22.069  0.4730E+01  0.1482E+01
    -22.054  0.4422E+01  0.1548E+01
    -22.039  0.4089E+01  0.1609E+01
    -22.024  0.3742E+01  0.1664E+01
    -22.009  0.3389E+01  0.1714E+01
    -21.994  0.3038E+01  0.1759E+01
    -21.980  0.2698E+01  0.1800E+01
    -21.965  0.2376E+01  0.1835E+01
    -21.950  0.2077E+01  0.1866E+01
    -21.935  0.1806E+01  0.1892E+01
    -21.920  0.1568E+01  0.1916E+01
    -21.905  0.1365E+01  0.1936E+01
    -21.891  0.1200E+01  0.1954E+01
    -21.876  0.1073E+01  0.1970E+01
    -21.861  0.9869E+00  0.1984E+01
    -21.846  0.9412E+00  0.1998E+01
    -21.831  0.9364E+00  0.2012E+01
    -21.816  0.9727E+00  0.2027E+01
    -21.802  0.1050E+01  0.2042E+01
    -21.787  0.1168E+01  0.2059E+01
    -21.772  0.1327E+01  0.2079E+01
    -21.757  0.1524E+01  0.2102E+01
    -21.742  0.1759E+01  0.2128E+01
    -21.727  0.2030E+01  0.2158E+01
    -21.713  0.2333E+01  0.2193E+01
    -21.698  0.2665E+01  0.2232E+01
    -21.683  0.3021E+01  0.2277E+01
    -21.668  0.3396E+01  0.2327E+01
    -21.653  0.3784E+01  0.2383E+01
    -21.638  0.4178E+01  0.2445E+01
    -21.624  0.4571E+01  0.2513E+01
    -21.609  0.4957E+01  0.2587E+01
    -21.594  0.5328E+01  0.2666E+01
    -21.579  0.5678E+01  0.2750E+01
    -21.564  0.6002E+01  0.2839E+01
    -21.549  0.6297E+01  0.2932E+01
    -21.535  0.6558E+01  0.3030E+01
    -21.520  0.6786E+01  0.3130E+01
    -21.505  0.6979E+01  0.3234E+01
    -21.490  0.7139E+01  0.3340E+01
    -21.475  0.7268E+01  0.3448E+01
    -21.460  0.7369E+01  0.3557E+01
    -21.446  0.7445E+01  0.3667E+01
    -21.431  0.7499E+01  0.3779E+01
    -21.416  0.7533E+01  0.3890E+01
    -21.401  0.7551E+01  0.4002E+01
    -21.386  0.7553E+01  0.4114E+01
    -21.371  0.7540E+01  0.4226E+01
    -21.357  0.7511E+01  0.4338E+01
    -21.342  0.7464E+01  0.4448E+01
    -21.327  0.7398E+01  0.4558E+01
    -21.312  0.7311E+01  0.4667E+01
    -21.297  0.7200E+01  0.4773E+01
    -21.282  0.7065E+01  0.4878E+01
    -21.268  0.6905E+01  0.4981E+01
    -21.253  0.6722E+01  0.5080E+01
    -21.238  0.6516E+01  0.5177E+01
    -21.223  0.6294E+01  0.5270E+01
    -21.208  0.6061E+01  0.5360E+01
    -21.193  0.5824E+01  0.5447E+01
    -21.179  0.5593E+01  0.5530E+01
    -21.164  0.5378E+01  0.5609E+01
    -21.149  0.5189E+01  0.5686E+01
    -21.134  0.5037E+01  0.5761E+01
    -21.119  0.4933E+01  0.5834E+01
    -21.104  0.4887E+01  0.5907E+01
    -21.090  0.4907E+01  0.5980E+01
    -21.075  0.5000E+01  0.6054E+01
    -21.060  0.5172E+01  0.6130E+01
    -21.045  0.5424E+01  0.6211E+01
    -21.030  0.5759E+01  0.6296E+01
    -21.015  0.6174E+01  0.6388E+01
    -21.001  0.6664E+01  0.6487E+01
    -20.986  0.7223E+01  0.6594E+01
    -20.971  0.7843E+01  0.6710E+01
    -20.956  0.8513E+01  0.6837E+01
    -20.941  0.9223E+01  0.6973E+01
    -20.926  0.9959E+01  0.7121E+01
    -20.912  0.1071E+02  0.7280E+01
    -20.897  0.1146E+02  0.7450E+01
    -20.882  0.1219E+02  0.7631E+01
    -20.867  0.1290E+02  0.7822E+01
    -20.852  0.1358E+02  0.8024E+01
    -20.837  0.1421E+02  0.8234E+01
    -20.823  0.1478E+02  0.8454E+01
    -20.808  0.1530E+02  0.8681E+01
    -20.793  0.1575E+02  0.8914E+01
    -20.778  0.1614E+02  0.9154E+01
    -20.763  0.1646E+02  0.9398E+01
    -20.748  0.1672E+02  0.9646E+01
    -20.734  0.1692E+02  0.9897E+01
    -20.719  0.1707E+02  0.1015E+02
    -20.704  0.1718E+02  0.1041E+02
    -20.689  0.1725E+02  0.1066E+02
    -20.674  0.1730E+02  0.1092E+02
    -20.659  0.1733E+02  0.1117E+02
    -20.645  0.1735E+02  0.1143E+02
    -20.630  0.1737E+02  0.1169E+02
    -20.615  0.1740E+02  0.1195E+02
    -20.600  0.1746E+02  0.1221E+02
    -20.585  0.1753E+02  0.1247E+02
    -20.570  0.1764E+02  0.1273E+02
    -20.556  0.1778E+02  0.1299E+02
    -20.541  0.1795E+02  0.1326E+02
    -20.526  0.1815E+02  0.1353E+02
    -20.511  0.1839E+02  0.1380E+02
    -20.496  0.1865E+02  0.1408E+02
    -20.481  0.1894E+02  0.1436E+02
    -20.467  0.1924E+02  0.1464E+02
    -20.452  0.1955E+02  0.1493E+02
    -20.437  0.1986E+02  0.1523E+02
    -20.422  0.2017E+02  0.1553E+02
    -20.407  0.2046E+02  0.1583E+02
    -20.392  0.2074E+02  0.1614E+02
    -20.378  0.2099E+02  0.1645E+02
    -20.363  0.2120E+02  0.1676E+02
    -20.348  0.2139E+02  0.1708E+02
    -20.333  0.2153E+02  0.1740E+02
    -20.318  0.2164E+02  0.1772E+02
    -20.303  0.2171E+02  0.1804E+02
    -20.289  0.2174E+02  0.1837E+02
    -20.274  0.2173E+02  0.1869E+02
    -20.259  0.2169E+02  0.1901E+02
    -20.244  0.2161E+02  0.1933E+02
    -20.229  0.2152E+02  0.1965E+02
    -20.214  0.2139E+02  0.1997E+02
    -20.200  0.2125E+02  0.2028E+02
    -20.185  0.2110E+02  0.2060E+02
    -20.170  0.2094E+02  0.2091E+02
    -20.155  0.2077E+02  0.2121E+02
    -20.140  0.2061E+02  0.2152E+02
    -20.125  0.2045E+02  0.2182E+02
    -20.111  0.2030E+02  0.2212E+02
    -20.096  0.2017E+02  0.2242E+02
    -20.081  0.2005E+02  0.2272E+02
    -20.066  0.1996E+02  0.2302E+02
    -20.051  0.1988E+02  0.2331E+02
    -20.036  0.1984E+02  0.2361E+02
    -20.022  0.1982E+02  0.2390E+02
    -20.007  0.1983E+02  0.2420E+02
    -19.992  0.1987E+02  0.2449E+02
    -19.977  0.1993E+02  0.2479E+02
    -19.962  0.2001E+02  0.2508E+02
    -19.947  0.2011E+02  0.2538E+02
    -19.933  0.2023E+02  0.2568E+02
    -19.918  0.2035E+02  0.2598E+02
    -19.903  0.2048E+02  0.2629E+02
    -19.888  0.2060E+02  0.2659E+02
    -19.873  0.2072E+02  0.2690E+02
    -19.858  0.2083E+02  0.2721E+02
    -19.844  0.2091E+02  0.2752E+02
    -19.829  0.2098E+02  0.2783E+02
    -19.814  0.2102E+02  0.2814E+02
    -19.799  0.2104E+02  0.2845E+02
    -19.784  0.2103E+02  0.2877E+02
    -19.769  0.2100E+02  0.2908E+02
    -19.755  0.2094E+02  0.2939E+02
    -19.740  0.2087E+02  0.2970E+02
    -19.725  0.2078E+02  0.3001E+02
    -19.710  0.2068E+02  0.3031E+02
    -19.695  0.2057E+02  0.3062E+02
    -19.680  0.2046E+02  0.3092E+02
    -19.666  0.2037E+02  0.3122E+02
    -19.651  0.2028E+02  0.3152E+02
    -19.636  0.2021E+02  0.3182E+02
    -19.621  0.2016E+02  0.3212E+02
    -19.606  0.2014E+02  0.3242E+02
    -19.591  0.2015E+02  0.3272E+02
    -19.577  0.2018E+02  0.3302E+02
    -19.562  0.2025E+02  0.3332E+02
    -19.547  0.2034E+02  0.3362E+02
    -19.532  0.2046E+02  0.3393E+02
    -19.517  0.2060E+02  0.3423E+02
    -19.502  0.2076E+02  0.3454E+02
    -19.488  0.2093E+02  0.3485E+02
    -19.473  0.2111E+02  0.3516E+02
    -19.458  0.2129E+02  0.3548E+02
    -19.443  0.2146E+02  0.3580E+02
    -19.428  0.2163E+02  0.3612E+02
    -19.413  0.2178E+02  0.3644E+02
    -19.399  0.2191E+02  0.3677E+02
    -19.384  0.2202E+02  0.3709E+02
    -19.369  0.2211E+02  0.3742E+02
    -19.354  0.2217E+02  0.3775E+02
    -19.339  0.2220E+02  0.3808E+02
    -19.324  0.2221E+02  0.3841E+02
    -19.310  0.2219E+02  0.3874E+02
    -19.295  0.2215E+02  0.3907E+02
    -19.280  0.2209E+02  0.3939E+02
    -19.265  0.2200E+02  0.3972E+02
    -19.250  0.2190E+02  0.4005E+02
    -19.235  0.2179E+02  0.4037E+02
    -19.221  0.2166E+02  0.4069E+02
    -19.206  0.2153E+02  0.4101E+02
    -19.191  0.2138E+02  0.4133E+02
    -19.176  0.2123E+02  0.4164E+02
    -19.161  0.2108E+02  0.4195E+02
    -19.146  0.2093E+02  0.4226E+02
    -19.132  0.2077E+02  0.4257E+02
    -19.117  0.2061E+02  0.4288E+02
    -19.102  0.2046E+02  0.4318E+02
    -19.087  0.2030E+02  0.4348E+02
    -19.072  0.2014E+02  0.4378E+02
    -19.057  0.1999E+02  0.4408E+02
    -19.043  0.1984E+02  0.4437E+02
    -19.028  0.1969E+02  0.4466E+02
    -19.013  0.1954E+02  0.4495E+02
    -18.998  0.1939E+02  0.4524E+02
    -18.983  0.1925E+02  0.4553E+02
    -18.968  0.1912E+02  0.4581E+02
    -18.954  0.1899E+02  0.4609E+02
    -18.939  0.1886E+02  0.4637E+02
    -18.924  0.1875E+02  0.4665E+02
    -18.909  0.1864E+02  0.4693E+02
    -18.894  0.1853E+02  0.4720E+02
    -18.879  0.1844E+02  0.4748E+02
    -18.864  0.1836E+02  0.4775E+02
    -18.850  0.1828E+02  0.4802E+02
    -18.835  0.1822E+02  0.4829E+02
    -18.820  0.1816E+02  0.4856E+02
    -18.805  0.1811E+02  0.4883E+02
    -18.790  0.1806E+02  0.4910E+02
    -18.775  0.1803E+02  0.4936E+02
    -18.761  0.1800E+02  0.4963E+02
    -18.746  0.1798E+02  0.4990E+02
    -18.731  0.1796E+02  0.5016E+02
    -18.716  0.1794E+02  0.5043E+02
    -18.701  0.1793E+02  0.5069E+02
    -18.686  0.1793E+02  0.5096E+02
    -18.672  0.1793E+02  0.5123E+02
    -18.657  0.1794E+02  0.5149E+02
    -18.642  0.1795E+02  0.5176E+02
    -18.627  0.1798E+02  0.5203E+02
    -18.612  0.1801E+02  0.5229E+02
    -18.597  0.1805E+02  0.5256E+02
    -18.583  0.1811E+02  0.5283E+02
    -18.568  0.1817E+02  0.5310E+02
    -18.553  0.1826E+02  0.5337E+02
    -18.538  0.1836E+02  0.5364E+02
    -18.523  0.1848E+02  0.5392E+02
    -18.508  0.1861E+02  0.5419E+02
    -18.494  0.1877E+02  0.5447E+02
    -18.479  0.1894E+02  0.5475E+02
    -18.464  0.1913E+02  0.5504E+02
    -18.449  0.1934E+02  0.5532E+02
    -18.434  0.1956E+02  0.5561E+02
    -18.419  0.1981E+02  0.5591E+02
    -18.405  0.2006E+02  0.5620E+02
    -18.390  0.2034E+02  0.5651E+02
    -18.375  0.2062E+02  0.5681E+02
    -18.360  0.2091E+02  0.5712E+02
    -18.345  0.2121E+02  0.5744E+02
    -18.330  0.2151E+02  0.5776E+02
    -18.316  0.2182E+02  0.5808E+02
    -18.301  0.2211E+02  0.5841E+02
    -18.286  0.2240E+02  0.5874E+02
    -18.271  0.2268E+02  0.5908E+02
    -18.256  0.2294E+02  0.5942E+02
    -18.241  0.2317E+02  0.5976E+02
    -18.227  0.2337E+02  0.6011E+02
    -18.212  0.2355E+02  0.6046E+02
    -18.197  0.2368E+02  0.6081E+02
    -18.182  0.2378E+02  0.6116E+02
    -18.167  0.2383E+02  0.6151E+02
    -18.152  0.2384E+02  0.6187E+02
    -18.138  0.2381E+02  0.6222E+02
    -18.123  0.2374E+02  0.6257E+02
    -18.108  0.2363E+02  0.6292E+02
    -18.093  0.2349E+02  0.6327E+02
    -18.078  0.2333E+02  0.6362E+02
    -18.063  0.2314E+02  0.6396E+02
    -18.049  0.2293E+02  0.6430E+02
    -18.034  0.2271E+02  0.6464E+02
    -18.019  0.2249E+02  0.6497E+02
    -18.004  0.2228E+02  0.6530E+02
    -17.989  0.2208E+02  0.6563E+02
    -17.974  0.2189E+02  0.6595E+02
    -17.960  0.2172E+02  0.6628E+02
    -17.945  0.2158E+02  0.6660E+02
    -17.930  0.2147E+02  0.6691E+02
    -17.915  0.2138E+02  0.6723E+02
    -17.900  0.2132E+02  0.6755E+02
    -17.885  0.2129E+02  0.6786E+02
    -17.871  0.2129E+02  0.6818E+02
    -17.856  0.2130E+02  0.6850E+02
    -17.841  0.2134E+02  0.6881E+02
    -17.826  0.2138E+02  0.6913E+02
    -17.811  0.2143E+02  0.6945E+02
    -17.796  0.2148E+02  0.6977E+02
    -17.782  0.2153E+02  0.7009E+02
    -17.767  0.2156E+02  0.7041E+02
    -17.752  0.2157E+02  0.7073E+02
    -17.737  0.2156E+02  0.7105E+02
    -17.722  0.2153E+02  0.7136E+02
    -17.707  0.2146E+02  0.7168E+02
    -17.693  0.2137E+02  0.7200E+02
    -17.678  0.2124E+02  0.7232E+02
    -17.663  0.2108E+02  0.7263E+02
    -17.648  0.2090E+02  0.7294E+02
    -17.633  0.2068E+02  0.7324E+02
    -17.618  0.2045E+02  0.7355E+02
    -17.604  0.2020E+02  0.7385E+02
    -17.589  0.1994E+02  0.7414E+02
    -17.574  0.1968E+02  0.7444E+02
    -17.559  0.1942E+02  0.7472E+02
    -17.544  0.1917E+02  0.7501E+02
    -17.529  0.1893E+02  0.7529E+02
    -17.515  0.1872E+02  0.7557E+02
    -17.500  0.1853E+02  0.7584E+02
    -17.485  0.1838E+02  0.7611E+02
    -17.470  0.1826E+02  0.7638E+02
    -17.455  0.1818E+02  0.7665E+02
    -17.440  0.1814E+02  0.7692E+02
    -17.426  0.1815E+02  0.7719E+02
    -17.411  0.1819E+02  0.7746E+02
    -17.396  0.1828E+02  0.7773E+02
    -17.381  0.1840E+02  0.7801E+02
    -17.366  0.1855E+02  0.7828E+02
    -17.351  0.1873E+02  0.7856E+02
    -17.337  0.1894E+02  0.7884E+02
    -17.322  0.1916E+02  0.7912E+02
    -17.307  0.1939E+02  0.7941E+02
    -17.292  0.1963E+02  0.7970E+02
    -17.277  0.1987E+02  0.8000E+02
    -17.262  0.2011E+02  0.8030E+02
    -17.248  0.2033E+02  0.8060E+02
    -17.233  0.2054E+02  0.8090E+02
    -17.218  0.2073E+02  0.8121E+02
    -17.203  0.2090E+02  0.8152E+02
    -17.188  0.2104E+02  0.8183E+02
    -17.173  0.2116E+02  0.8215E+02
    -17.159  0.2125E+02  0.8246E+02
    -17.144  0.2132E+02  0.8278E+02
    -17.129  0.2137E+02  0.8310E+02
    -17.114  0.2139E+02  0.8341E+02
    -17.099  0.2140E+02  0.8373E+02
    -17.084  0.2138E+02  0.8405E+02
    -17.070  0.2136E+02  0.8436E+02
    -17.055  0.2133E+02  0.8468E+02
    -17.040  0.2129E+02  0.8500E+02
    -17.025  0.2125E+02  0.8531E+02
    -17.010  0.2120E+02  0.8563E+02
    -16.995  0.2116E+02  0.8594E+02
    -16.981  0.2111E+02  0.8625E+02
    -16.966  0.2107E+02  0.8657E+02
    -16.951  0.2103E+02  0.8688E+02
    -16.936  0.2098E+02  0.8719E+02
    -16.921  0.2093E+02  0.8750E+02
    -16.906  0.2087E+02  0.8781E+02
    -16.892  0.2081E+02  0.8812E+02
    -16.877  0.2074E+02  0.8843E+02
    -16.862  0.2065E+02  0.8873E+02
    -16.847  0.2056E+02  0.8904E+02
    -16.832  0.2045E+02  0.8934E+02
    -16.817  0.2033E+02  0.8964E+02
    -16.803  0.2020E+02  0.8994E+02
    -16.788  0.2007E+02  0.9024E+02
    -16.773  0.1994E+02  0.9053E+02
    -16.758  0.1981E+02  0.9083E+02
    -16.743  0.1969E+02  0.9112E+02
    -16.728  0.1958E+02  0.9141E+02
    -16.714  0.1950E+02  0.9170E+02
    -16.699  0.1943E+02  0.9199E+02
    -16.684  0.1940E+02  0.9228E+02
    -16.669  0.1939E+02  0.9256E+02
    -16.654  0.1942E+02  0.9285E+02
    -16.639  0.1947E+02  0.9314E+02
    -16.625  0.1956E+02  0.9343E+02
    -16.610  0.1967E+02  0.9372E+02
    -16.595  0.1981E+02  0.9402E+02
    -16.580  0.1997E+02  0.9431E+02
    -16.565  0.2015E+02  0.9461E+02
    -16.550  0.2033E+02  0.9491E+02
    -16.536  0.2053E+02  0.9522E+02
    -16.521  0.2072E+02  0.9553E+02
    -16.506  0.2092E+02  0.9584E+02
    -16.491  0.2111E+02  0.9615E+02
    -16.476  0.2129E+02  0.9646E+02
    -16.461  0.2146E+02  0.9678E+02
    -16.447  0.2162E+02  0.9710E+02
    -16.432  0.2177E+02  0.9743E+02
    -16.417  0.2190E+02  0.9775E+02
    -16.402  0.2202E+02  0.9808E+02
    -16.387  0.2213E+02  0.9841E+02
    -16.372  0.2222E+02  0.9874E+02
    -16.358  0.2229E+02  0.9907E+02
    -16.343  0.2235E+02  0.9940E+02
    -16.328  0.2239E+02  0.9973E+02
    -16.313  0.2242E+02  0.1001E+03
    -16.298  0.2244E+02  0.1004E+03
    -16.283  0.2245E+02  0.1007E+03
    -16.269  0.2244E+02  0.1011E+03
    -16.254  0.2242E+02  0.1014E+03
    -16.239  0.2239E+02  0.1017E+03
    -16.224  0.2236E+02  0.1021E+03
    -16.209  0.2232E+02  0.1024E+03
    -16.194  0.2227E+02  0.1027E+03
    -16.180  0.2222E+02  0.1030E+03
    -16.165  0.2217E+02  0.1034E+03
    -16.150  0.2212E+02  0.1037E+03
    -16.135  0.2206E+02  0.1040E+03
    -16.120  0.2201E+02  0.1044E+03
    -16.105  0.2195E+02  0.1047E+03
    -16.091  0.2190E+02  0.1050E+03
    -16.076  0.2184E+02  0.1053E+03
    -16.061  0.2179E+02  0.1057E+03
    -16.046  0.2173E+02  0.1060E+03
    -16.031  0.2167E+02  0.1063E+03
    -16.016  0.2162E+02  0.1066E+03
    -16.002  0.2157E+02  0.1069E+03
    -15.987  0.2151E+02  0.1073E+03
    -15.972  0.2146E+02  0.1076E+03
    -15.957  0.2141E+02  0.1079E+03
    -15.942  0.2137E+02  0.1082E+03
    -15.927  0.2133E+02  0.1085E+03
    -15.913  0.2129E+02  0.1088E+03
    -15.898  0.2126E+02  0.1092E+03
    -15.883  0.2123E+02  0.1095E+03
    -15.868  0.2121E+02  0.1098E+03
    -15.853  0.2118E+02  0.1101E+03
    -15.838  0.2116E+02  0.1104E+03
    -15.824  0.2113E+02  0.1107E+03
    -15.809  0.2110E+02  0.1110E+03
    -15.794  0.2106E+02  0.1114E+03
    -15.779  0.2102E+02  0.1117E+03
    -15.764  0.2096E+02  0.1120E+03
    -15.749  0.2089E+02  0.1123E+03
    -15.735  0.2081E+02  0.1126E+03
    -15.720  0.2072E+02  0.1129E+03
    -15.705  0.2062E+02  0.1132E+03
    -15.690  0.2051E+02  0.1135E+03
    -15.675  0.2040E+02  0.1138E+03
    -15.660  0.2028E+02  0.1141E+03
    -15.646  0.2017E+02  0.1144E+03
    -15.631  0.2007E+02  0.1147E+03
    -15.616  0.1998E+02  0.1150E+03
    -15.601  0.1991E+02  0.1153E+03
    -15.586  0.1985E+02  0.1156E+03
    -15.571  0.1982E+02  0.1159E+03
    -15.557  0.1982E+02  0.1162E+03
    -15.542  0.1984E+02  0.1165E+03
    -15.527  0.1988E+02  0.1168E+03
    -15.512  0.1994E+02  0.1171E+03
    -15.497  0.2001E+02  0.1174E+03
    -15.482  0.2010E+02  0.1177E+03
    -15.467  0.2019E+02  0.1180E+03
    -15.453  0.2027E+02  0.1183E+03
    -15.438  0.2035E+02  0.1186E+03
    -15.423  0.2041E+02  0.1189E+03
    -15.408  0.2045E+02  0.1192E+03
    -15.393  0.2047E+02  0.1195E+03
    -15.378  0.2046E+02  0.1198E+03
    -15.364  0.2042E+02  0.1201E+03
    -15.349  0.2034E+02  0.1204E+03
    -15.334  0.2024E+02  0.1207E+03
    -15.319  0.2011E+02  0.1210E+03
    -15.304  0.1996E+02  0.1213E+03
    -15.289  0.1979E+02  0.1216E+03
    -15.275  0.1961E+02  0.1219E+03
    -15.260  0.1942E+02  0.1222E+03
    -15.245  0.1923E+02  0.1224E+03
    -15.230  0.1904E+02  0.1227E+03
    -15.215  0.1887E+02  0.1230E+03
    -15.200  0.1871E+02  0.1233E+03
    -15.186  0.1858E+02  0.1236E+03
    -15.171  0.1848E+02  0.1238E+03
    -15.156  0.1841E+02  0.1241E+03
    -15.141  0.1837E+02  0.1244E+03
    -15.126  0.1837E+02  0.1247E+03
    -15.111  0.1841E+02  0.1249E+03
    -15.097  0.1849E+02  0.1252E+03
    -15.082  0.1861E+02  0.1255E+03
    -15.067  0.1877E+02  0.1258E+03
    -15.052  0.1896E+02  0.1260E+03
    -15.037  0.1919E+02  0.1263E+03
    -15.022  0.1945E+02  0.1266E+03
    -15.008  0.1972E+02  0.1269E+03
    -14.993  0.2002E+02  0.1272E+03
    -14.978  0.2033E+02  0.1275E+03
    -14.963  0.2064E+02  0.1278E+03
    -14.948  0.2095E+02  0.1281E+03
    -14.933  0.2125E+02  0.1284E+03
    -14.919  0.2153E+02  0.1288E+03
    -14.904  0.2179E+02  0.1291E+03
    -14.889  0.2201E+02  0.1294E+03
    -14.874  0.2220E+02  0.1297E+03
    -14.859  0.2235E+02  0.1301E+03
    -14.844  0.2247E+02  0.1304E+03
    -14.830  0.2254E+02  0.1307E+03
    -14.815  0.2257E+02  0.1311E+03
    -14.800  0.2256E+02  0.1314E+03
    -14.785  0.2251E+02  0.1317E+03
    -14.770  0.2244E+02  0.1321E+03
    -14.755  0.2233E+02  0.1324E+03
    -14.741  0.2221E+02  0.1327E+03
    -14.726  0.2208E+02  0.1331E+03
    -14.711  0.2193E+02  0.1334E+03
    -14.696  0.2179E+02  0.1337E+03
    -14.681  0.2164E+02  0.1340E+03
    -14.666  0.2150E+02  0.1343E+03
    -14.652  0.2136E+02  0.1347E+03
    -14.637  0.2123E+02  0.1350E+03
    -14.622  0.2111E+02  0.1353E+03
    -14.607  0.2100E+02  0.1356E+03
    -14.592  0.2089E+02  0.1359E+03
    -14.577  0.2078E+02  0.1362E+03
    -14.563  0.2068E+02  0.1365E+03
    -14.548  0.2058E+02  0.1368E+03
    -14.533  0.2048E+02  0.1371E+03
    -14.518  0.2038E+02  0.1374E+03
    -14.503  0.2027E+02  0.1377E+03
    -14.488  0.2016E+02  0.1380E+03
    -14.474  0.2006E+02  0.1383E+03
    -14.459  0.1995E+02  0.1386E+03
    -14.444  0.1986E+02  0.1389E+03
    -14.429  0.1977E+02  0.1392E+03
    -14.414  0.1970E+02  0.1395E+03
    -14.399  0.1965E+02  0.1398E+03
    -14.385  0.1962E+02  0.1401E+03
    -14.370  0.1962E+02  0.1404E+03
    -14.355  0.1965E+02  0.1407E+03
    -14.340  0.1972E+02  0.1410E+03
    -14.325  0.1983E+02  0.1413E+03
    -14.310  0.1997E+02  0.1416E+03
    -14.296  0.2015E+02  0.1419E+03
    -14.281  0.2036E+02  0.1422E+03
    -14.266  0.2061E+02  0.1425E+03
    -14.251  0.2088E+02  0.1428E+03
    -14.236  0.2117E+02  0.1431E+03
    -14.221  0.2147E+02  0.1434E+03
    -14.207  0.2178E+02  0.1437E+03
    -14.192  0.2208E+02  0.1441E+03
    -14.177  0.2237E+02  0.1444E+03
    -14.162  0.2264E+02  0.1447E+03
    -14.147  0.2288E+02  0.1451E+03
    -14.132  0.2309E+02  0.1454E+03
    -14.118  0.2327E+02  0.1457E+03
    -14.103  0.2340E+02  0.1461E+03
    -14.088  0.2349E+02  0.1464E+03
    -14.073  0.2354E+02  0.1468E+03
    -14.058  0.2354E+02  0.1471E+03
    -14.043  0.2351E+02  0.1475E+03
    -14.029  0.2345E+02  0.1478E+03
    -14.014  0.2335E+02  0.1482E+03
    -13.999  0.2323E+02  0.1485E+03
    -13.984  0.2310E+02  0.1489E+03
    -13.969  0.2295E+02  0.1492E+03
    -13.954  0.2279E+02  0.1496E+03
    -13.940  0.2263E+02  0.1499E+03
    -13.925  0.2248E+02  0.1502E+03
    -13.910  0.2233E+02  0.1506E+03
    -13.895  0.2220E+02  0.1509E+03
    -13.880  0.2208E+02  0.1512E+03
    -13.865  0.2197E+02  0.1515E+03
    -13.851  0.2188E+02  0.1519E+03
    -13.836  0.2181E+02  0.1522E+03
    -13.821  0.2176E+02  0.1525E+03
    -13.806  0.2172E+02  0.1528E+03
    -13.791  0.2170E+02  0.1532E+03
    -13.776  0.2169E+02  0.1535E+03
    -13.762  0.2171E+02  0.1538E+03
    -13.747  0.2173E+02  0.1541E+03
    -13.732  0.2178E+02  0.1544E+03
    -13.717  0.2183E+02  0.1548E+03
    -13.702  0.2191E+02  0.1551E+03
    -13.687  0.2199E+02  0.1554E+03
    -13.673  0.2208E+02  0.1557E+03
    -13.658  0.2219E+02  0.1561E+03
    -13.643  0.2230E+02  0.1564E+03
    -13.628  0.2241E+02  0.1567E+03
    -13.613  0.2253E+02  0.1571E+03
    -13.598  0.2264E+02  0.1574E+03
    -13.584  0.2275E+02  0.1577E+03
    -13.569  0.2285E+02  0.1581E+03
    -13.554  0.2294E+02  0.1584E+03
    -13.539  0.2301E+02  0.1588E+03
    -13.524  0.2306E+02  0.1591E+03
    -13.509  0.2309E+02  0.1594E+03
    -13.495  0.2310E+02  0.1598E+03
    -13.480  0.2309E+02  0.1601E+03
    -13.465  0.2305E+02  0.1605E+03
    -13.450  0.2299E+02  0.1608E+03
    -13.435  0.2292E+02  0.1612E+03
    -13.420  0.2282E+02  0.1615E+03
    -13.406  0.2270E+02  0.1618E+03
    -13.391  0.2257E+02  0.1622E+03
    -13.376  0.2242E+02  0.1625E+03
    -13.361  0.2226E+02  0.1628E+03
    -13.346  0.2210E+02  0.1632E+03
    -13.331  0.2193E+02  0.1635E+03
    -13.317  0.2175E+02  0.1638E+03
    -13.302  0.2158E+02  0.1641E+03
    -13.287  0.2140E+02  0.1644E+03
    -13.272  0.2124E+02  0.1648E+03
    -13.257  0.2108E+02  0.1651E+03
    -13.242  0.2093E+02  0.1654E+03
    -13.228  0.2080E+02  0.1657E+03
    -13.213  0.2069E+02  0.1660E+03
    -13.198  0.2061E+02  0.1663E+03
    -13.183  0.2055E+02  0.1666E+03
    -13.168  0.2052E+02  0.1669E+03
    -13.153  0.2052E+02  0.1672E+03
    -13.139  0.2055E+02  0.1675E+03
    -13.124  0.2063E+02  0.1678E+03
    -13.109  0.2074E+02  0.1681E+03
    -13.094  0.2088E+02  0.1684E+03
    -13.079  0.2106E+02  0.1688E+03
    -13.064  0.2128E+02  0.1691E+03
    -13.050  0.2152E+02  0.1694E+03
    -13.035  0.2179E+02  0.1697E+03
    -13.020  0.2209E+02  0.1700E+03
    -13.005  0.2239E+02  0.1704E+03
    -12.990  0.2271E+02  0.1707E+03
    -12.975  0.2303E+02  0.1711E+03
    -12.961  0.2335E+02  0.1714E+03
    -12.946  0.2366E+02  0.1717E+03
    -12.931  0.2395E+02  0.1721E+03
    -12.916  0.2422E+02  0.1725E+03
    -12.901  0.2445E+02  0.1728E+03
    -12.886  0.2466E+02  0.1732E+03
    -12.872  0.2482E+02  0.1736E+03
    -12.857  0.2495E+02  0.1739E+03
    -12.842  0.2504E+02  0.1743E+03
    -12.827  0.2508E+02  0.1747E+03
    -12.812  0.2508E+02  0.1750E+03
    -12.797  0.2504E+02  0.1754E+03
    -12.783  0.2496E+02  0.1758E+03
    -12.768  0.2485E+02  0.1762E+03
    -12.753  0.2472E+02  0.1765E+03
    -12.738  0.2456E+02  0.1769E+03
    -12.723  0.2438E+02  0.1772E+03
    -12.708  0.2418E+02  0.1776E+03
    -12.694  0.2398E+02  0.1780E+03
    -12.679  0.2377E+02  0.1783E+03
    -12.664  0.2355E+02  0.1787E+03
    -12.649  0.2334E+02  0.1790E+03
    -12.634  0.2312E+02  0.1794E+03
    -12.619  0.2291E+02  0.1797E+03
    -12.605  0.2270E+02  0.1800E+03
    -12.590  0.2249E+02  0.1804E+03
    -12.575  0.2228E+02  0.1807E+03
    -12.560  0.2208E+02  0.1810E+03
    -12.545  0.2187E+02  0.1813E+03
    -12.530  0.2166E+02  0.1817E+03
    -12.516  0.2146E+02  0.1820E+03
    -12.501  0.2126E+02  0.1823E+03
    -12.486  0.2107E+02  0.1826E+03
    -12.471  0.2088E+02  0.1829E+03
    -12.456  0.2071E+02  0.1832E+03
    -12.441  0.2056E+02  0.1835E+03
    -12.427  0.2043E+02  0.1838E+03
    -12.412  0.2032E+02  0.1841E+03
    -12.397  0.2025E+02  0.1844E+03
    -12.382  0.2021E+02  0.1847E+03
    -12.367  0.2021E+02  0.1850E+03
    -12.352  0.2024E+02  0.1853E+03
    -12.338  0.2032E+02  0.1856E+03
    -12.323  0.2043E+02  0.1859E+03
    -12.308  0.2057E+02  0.1863E+03
    -12.293  0.2074E+02  0.1866E+03
    -12.278  0.2094E+02  0.1869E+03
    -12.263  0.2115E+02  0.1872E+03
    -12.249  0.2137E+02  0.1875E+03
    -12.234  0.2160E+02  0.1878E+03
    -12.219  0.2182E+02  0.1881E+03
    -12.204  0.2204E+02  0.1885E+03
    -12.189  0.2225E+02  0.1888E+03
    -12.174  0.2244E+02  0.1891E+03
    -12.160  0.2261E+02  0.1895E+03
    -12.145  0.2277E+02  0.1898E+03
    -12.130  0.2291E+02  0.1901E+03
    -12.115  0.2304E+02  0.1905E+03
    -12.100  0.2317E+02  0.1908E+03
    -12.085  0.2329E+02  0.1912E+03
    -12.070  0.2342E+02  0.1915E+03
    -12.056  0.2355E+02  0.1919E+03
    -12.041  0.2370E+02  0.1922E+03
    -12.026  0.2386E+02  0.1926E+03
    -12.011  0.2403E+02  0.1929E+03
    -11.996  0.2422E+02  0.1933E+03
    -11.981  0.2442E+02  0.1937E+03
    -11.967  0.2464E+02  0.1940E+03
    -11.952  0.2486E+02  0.1944E+03
    -11.937  0.2508E+02  0.1948E+03
    -11.922  0.2530E+02  0.1951E+03