 250 250   0   0
  0.2640335E+02  0.2982000E-08  0.2213561E-08  0.1000000E-08  0.5000000E-15
  1.000000000000000E-004
  CAR 
 unknown system                          
      5.76155962    -24.27684218 2000     -1.41547169      1.00000000
    -24.277  0.0000E+00  0.0000E+00
    -24.262  0.0000E+00  0.0000E+00
    -24.247  0.0000E+00  0.0000E+00
    -24.232  0.0000E+00  0.0000E+00
    -24.217  0.0000E+00  0.0000E+00
    -24.202  0.0000E+00  0.0000E+00
    -24.187  0.0000E+00  0.0000E+00
    -24.172  0.0000E+00  0.0000E+00
    -24.157  0.0000E+00  0.0000E+00
    -24.142  0.0000E+00  0.0000E+00
    -24.127  0.0000E+00  0.0000E+00
    -24.112  0.0000E+00  0.0000E+00
    -24.097  0.0000E+00  0.0000E+00
    -24.081  0.0000E+00  0.0000E+00
    -24.066  0.0000E+00  0.0000E+00
    -24.051  0.0000E+00  0.0000E+00
    -24.036  0.0000E+00  0.0000E+00
    -24.021  0.0000E+00  0.0000E+00
    -24.006  0.0000E+00  0.0000E+00
    -23.991  0.0000E+00  0.0000E+00
    -23.976  0.0000E+00  0.0000E+00
    -23.961  0.0000E+00  0.0000E+00
    -23.946  0.0000E+00  0.0000E+00
    -23.931  0.0000E+00  0.0000E+00
    -23.916  0.0000E+00  0.0000E+00
    -23.901  0.0000E+00  0.0000E+00
    -23.886  0.0000E+00  0.0000E+00
    -23.871  0.0000E+00  0.0000E+00
    -23.856  0.0000E+00  0.0000E+00
    -23.841  0.0000E+00  0.0000E+00
    -23.826  0.0000E+00  0.0000E+00
    -23.811  0.0000E+00  0.0000E+00
    -23.796  0.0000E+00  0.0000E+00
    -23.781  0.0000E+00  0.0000E+00
    -23.766  0.0000E+00  0.0000E+00
    -23.751  0.0000E+00  0.0000E+00
    -23.736  0.0000E+00  0.0000E+00
    -23.721  0.0000E+00  0.0000E+00
    -23.706  0.0000E+00  0.0000E+00
    -23.691  0.0000E+00  0.0000E+00
    -23.676  0.0000E+00  0.0000E+00
    -23.661  0.0000E+00  0.0000E+00
    -23.646  0.0000E+00  0.0000E+00
    -23.631  0.0000E+00  0.0000E+00
    -23.616  0.0000E+00  0.0000E+00
    -23.601  0.0000E+00  0.0000E+00
    -23.586  0.0000E+00  0.0000E+00
    -23.571  0.0000E+00  0.0000E+00
    -23.556  0.0000E+00  0.0000E+00
    -23.541  0.0000E+00  0.0000E+00
    -23.526  0.0000E+00  0.0000E+00
    -23.510  0.0000E+00  0.0000E+00
    -23.495  0.0000E+00  0.0000E+00
    -23.480  0.0000E+00  0.0000E+00
    -23.465  0.0000E+00  0.0000E+00
    -23.450  0.7388E-14  0.1110E-15
    -23.435  0.7388E-14  0.2220E-15
    -23.420  0.2955E-13  0.6661E-15
    -23.405  0.5172E-13  0.1443E-14
    -23.390  0.1330E-12  0.3442E-14
    -23.375  0.3029E-12  0.7994E-14
    -23.360  0.7019E-12  0.1854E-13
    -23.345  0.1566E-11  0.4208E-13
    -23.330  0.3502E-11  0.9470E-13
    -23.315  0.7716E-11  0.2106E-12
    -23.300  0.1682E-10  0.4634E-12
    -23.285  0.3627E-10  0.1008E-11
    -23.270  0.7730E-10  0.2170E-11
    -23.255  0.1629E-09  0.4618E-11
    -23.240  0.3395E-09  0.9719E-11
    -23.225  0.6996E-09  0.2023E-10
    -23.210  0.1425E-08  0.4165E-10
    -23.195  0.2871E-08  0.8480E-10
    -23.180  0.5720E-08  0.1708E-09
    -23.165  0.1127E-07  0.3401E-09
    -23.150  0.2194E-07  0.6698E-09
    -23.135  0.4226E-07  0.1305E-08
    -23.120  0.8046E-07  0.2514E-08
    -23.105  0.1515E-06  0.4790E-08
    -23.090  0.2820E-06  0.9028E-08
    -23.075  0.5191E-06  0.1683E-07
    -23.060  0.9449E-06  0.3103E-07
    -23.045  0.1701E-05  0.5658E-07
    -23.030  0.3026E-05  0.1021E-06
    -23.015  0.5325E-05  0.1821E-06
    -23.000  0.9264E-05  0.3213E-06
    -22.985  0.1594E-04  0.5608E-06
    -22.970  0.2711E-04  0.9681E-06
    -22.954  0.4560E-04  0.1653E-05
    -22.939  0.7583E-04  0.2793E-05
    -22.924  0.1247E-03  0.4667E-05
    -22.909  0.2028E-03  0.7713E-05
    -22.894  0.3260E-03  0.1261E-04
    -22.879  0.5182E-03  0.2040E-04
    -22.864  0.8146E-03  0.3264E-04
    -22.849  0.1266E-02  0.5166E-04
    -22.834  0.1946E-02  0.8090E-04
    -22.819  0.2957E-02  0.1253E-03
    -22.804  0.4442E-02  0.1921E-03
    -22.789  0.6600E-02  0.2913E-03
    -22.774  0.9696E-02  0.4370E-03
    -22.759  0.1408E-01  0.6486E-03
    -22.744  0.2023E-01  0.9525E-03
    -22.729  0.2873E-01  0.1384E-02
    -22.714  0.4034E-01  0.1990E-02
    -22.699  0.5601E-01  0.2832E-02
    -22.684  0.7689E-01  0.3987E-02
    -22.669  0.1044E+00  0.5556E-02
    -22.654  0.1401E+00  0.7661E-02
    -22.639  0.1859E+00  0.1046E-01
    -22.624  0.2440E+00  0.1412E-01
    -22.609  0.3166E+00  0.1888E-01
    -22.594  0.4063E+00  0.2498E-01
    -22.579  0.5154E+00  0.3273E-01
    -22.564  0.6466E+00  0.4245E-01
    -22.549  0.8020E+00  0.5450E-01
    -22.534  0.9836E+00  0.6928E-01
    -22.519  0.1193E+01  0.8720E-01
    -22.504  0.1430E+01  0.1087E+00
    -22.489  0.1696E+01  0.1342E+00
    -22.474  0.1988E+01  0.1640E+00
    -22.459  0.2304E+01  0.1987E+00
    -22.444  0.2641E+01  0.2384E+00
    -22.429  0.2994E+01  0.2833E+00
    -22.414  0.3355E+01  0.3338E+00
    -22.399  0.3717E+01  0.3896E+00
    -22.383  0.4073E+01  0.4508E+00
    -22.368  0.4412E+01  0.5171E+00
    -22.353  0.4726E+01  0.5881E+00
    -22.338  0.5006E+01  0.6633E+00
    -22.323  0.5242E+01  0.7421E+00
    -22.308  0.5429E+01  0.8237E+00
    -22.293  0.5559E+01  0.9072E+00
    -22.278  0.5628E+01  0.9918E+00
    -22.263  0.5634E+01  0.1076E+01
    -22.248  0.5577E+01  0.1160E+01
    -22.233  0.5459E+01  0.1242E+01
    -22.218  0.5283E+01  0.1322E+01
    -22.203  0.5056E+01  0.1398E+01
    -22.188  0.4784E+01  0.1470E+01
    -22.173  0.4477E+01  0.1537E+01
    -22.158  0.4143E+01  0.1599E+01
    -22.143  0.3791E+01  0.1656E+01
    -22.128  0.3431E+01  0.1708E+01
    -22.113  0.3072E+01  0.1754E+01
    -22.098  0.2722E+01  0.1795E+01
    -22.083  0.2388E+01  0.1831E+01
    -22.068  0.2076E+01  0.1862E+01
    -22.053  0.1792E+01  0.1889E+01
    -22.038  0.1538E+01  0.1912E+01
    -22.023  0.1318E+01  0.1932E+01
    -22.008  0.1135E+01  0.1949E+01
    -21.993  0.9893E+00  0.1964E+01
    -21.978  0.8834E+00  0.1977E+01
    -21.963  0.8184E+00  0.1989E+01
    -21.948  0.7958E+00  0.2001E+01
    -21.933  0.8173E+00  0.2013E+01
    -21.918  0.8853E+00  0.2027E+01
    -21.903  0.1002E+01  0.2042E+01
    -21.888  0.1172E+01  0.2059E+01
    -21.873  0.1396E+01  0.2080E+01
    -21.858  0.1680E+01  0.2106E+01
    -21.843  0.2027E+01  0.2136E+01
    -21.827  0.2439E+01  0.2173E+01
    -21.812  0.2920E+01  0.2217E+01
    -21.797  0.3469E+01  0.2269E+01
    -21.782  0.4088E+01  0.2330E+01
    -21.767  0.4774E+01  0.2402E+01
    -21.752  0.5523E+01  0.2485E+01
    -21.737  0.6330E+01  0.2580E+01
    -21.722  0.7185E+01  0.2688E+01
    -21.707  0.8079E+01  0.2809E+01
    -21.692  0.8997E+01  0.2944E+01
    -21.677  0.9927E+01  0.3094E+01
    -21.662  0.1085E+02  0.3257E+01
    -21.647  0.1175E+02  0.3433E+01
    -21.632  0.1262E+02  0.3623E+01
    -21.617  0.1342E+02  0.3825E+01
    -21.602  0.1416E+02  0.4037E+01
    -21.587  0.1482E+02  0.4260E+01
    -21.572  0.1538E+02  0.4491E+01
    -21.557  0.1584E+02  0.4729E+01
    -21.542  0.1619E+02  0.4972E+01
    -21.527  0.1645E+02  0.5220E+01
    -21.512  0.1660E+02  0.5469E+01
    -21.497  0.1666E+02  0.5719E+01
    -21.482  0.1663E+02  0.5969E+01
    -21.467  0.1655E+02  0.6218E+01
    -21.452  0.1641E+02  0.6464E+01
    -21.437  0.1624E+02  0.6708E+01
    -21.422  0.1605E+02  0.6950E+01
    -21.407  0.1587E+02  0.7188E+01
    -21.392  0.1572E+02  0.7424E+01
    -21.377  0.1562E+02  0.7659E+01
    -21.362  0.1557E+02  0.7893E+01
    -21.347  0.1560E+02  0.8127E+01
    -21.332  0.1572E+02  0.8364E+01
    -21.317  0.1593E+02  0.8603E+01
    -21.302  0.1624E+02  0.8847E+01
    -21.287  0.1666E+02  0.9097E+01
    -21.271  0.1718E+02  0.9355E+01
    -21.256  0.1781E+02  0.9623E+01
    -21.241  0.1853E+02  0.9901E+01
    -21.226  0.1935E+02  0.1019E+02
    -21.211  0.2026E+02  0.1050E+02
    -21.196  0.2123E+02  0.1082E+02
    -21.181  0.2226E+02  0.1115E+02
    -21.166  0.2334E+02  0.1150E+02
    -21.151  0.2445E+02  0.1187E+02
    -21.136  0.2557E+02  0.1225E+02
    -21.121  0.2668E+02  0.1265E+02
    -21.106  0.2776E+02  0.1307E+02
    -21.091  0.2879E+02  0.1350E+02
    -21.076  0.2976E+02  0.1395E+02
    -21.061  0.3065E+02  0.1441E+02
    -21.046  0.3144E+02  0.1488E+02
    -21.031  0.3212E+02  0.1537E+02
    -21.016  0.3268E+02  0.1586E+02
    -21.001  0.3312E+02  0.1635E+02
    -20.986  0.3342E+02  0.1686E+02
    -20.971  0.3360E+02  0.1736E+02
    -20.956  0.3365E+02  0.1787E+02
    -20.941  0.3360E+02  0.1837E+02
    -20.926  0.3344E+02  0.1887E+02
    -20.911  0.3321E+02  0.1937E+02
    -20.896  0.3291E+02  0.1987E+02
    -20.881  0.3258E+02  0.2036E+02
    -20.866  0.3223E+02  0.2084E+02
    -20.851  0.3188E+02  0.2132E+02
    -20.836  0.3157E+02  0.2180E+02
    -20.821  0.3129E+02  0.2227E+02
    -20.806  0.3109E+02  0.2273E+02
    -20.791  0.3095E+02  0.2320E+02
    -20.776  0.3090E+02  0.2366E+02
    -20.761  0.3093E+02  0.2413E+02
    -20.746  0.3105E+02  0.2459E+02
    -20.731  0.3125E+02  0.2506E+02
    -20.716  0.3153E+02  0.2554E+02
    -20.700  0.3186E+02  0.2602E+02
    -20.685  0.3225E+02  0.2650E+02
    -20.670  0.3266E+02  0.2699E+02
    -20.655  0.3309E+02  0.2749E+02
    -20.640  0.3352E+02  0.2799E+02
    -20.625  0.3394E+02  0.2850E+02
    -20.610  0.3433E+02  0.2902E+02
    -20.595  0.3467E+02  0.2954E+02
    -20.580  0.3497E+02  0.3006E+02
    -20.565  0.3522E+02  0.3059E+02
    -20.550  0.3541E+02  0.3113E+02
    -20.535  0.3554E+02  0.3166E+02
    -20.520  0.3562E+02  0.3220E+02
    -20.505  0.3566E+02  0.3273E+02
    -20.490  0.3565E+02  0.3327E+02
    -20.475  0.3562E+02  0.3380E+02
    -20.460  0.3556E+02  0.3434E+02
    -20.445  0.3549E+02  0.3487E+02
    -20.430  0.3541E+02  0.3540E+02
    -20.415  0.3533E+02  0.3593E+02
    -20.400  0.3527E+02  0.3646E+02
    -20.385  0.3521E+02  0.3699E+02
    -20.370  0.3517E+02  0.3752E+02
    -20.355  0.3514E+02  0.3805E+02
    -20.340  0.3513E+02  0.3858E+02
    -20.325  0.3513E+02  0.3910E+02
    -20.310  0.3513E+02  0.3963E+02
    -20.295  0.3513E+02  0.4016E+02
    -20.280  0.3513E+02  0.4069E+02
    -20.265  0.3511E+02  0.4122E+02
    -20.250  0.3508E+02  0.4174E+02
    -20.235  0.3503E+02  0.4227E+02
    -20.220  0.3495E+02  0.4279E+02
    -20.205  0.3484E+02  0.4332E+02
    -20.190  0.3471E+02  0.4384E+02
    -20.175  0.3456E+02  0.4436E+02
    -20.160  0.3438E+02  0.4488E+02
    -20.144  0.3419E+02  0.4539E+02
    -20.129  0.3398E+02  0.4590E+02
    -20.114  0.3378E+02  0.4641E+02
    -20.099  0.3359E+02  0.4691E+02
    -20.084  0.3342E+02  0.4741E+02
    -20.069  0.3328E+02  0.4791E+02
    -20.054  0.3317E+02  0.4841E+02
    -20.039  0.3312E+02  0.4891E+02
    -20.024  0.3311E+02  0.4941E+02
    -20.009  0.3317E+02  0.4991E+02
    -19.994  0.3329E+02  0.5041E+02
    -19.979  0.3348E+02  0.5091E+02
    -19.964  0.3372E+02  0.5142E+02
    -19.949  0.3402E+02  0.5193E+02
    -19.934  0.3437E+02  0.5244E+02
    -19.919  0.3476E+02  0.5297E+02
    -19.904  0.3518E+02  0.5350E+02
    -19.889  0.3561E+02  0.5403E+02
    -19.874  0.3605E+02  0.5457E+02
    -19.859  0.3648E+02  0.5512E+02
    -19.844  0.3689E+02  0.5567E+02
    -19.829  0.3726E+02  0.5623E+02
    -19.814  0.3760E+02  0.5680E+02
    -19.799  0.3789E+02  0.5737E+02
    -19.784  0.3812E+02  0.5794E+02
    -19.769  0.3830E+02  0.5852E+02
    -19.754  0.3843E+02  0.5909E+02
    -19.739  0.3850E+02  0.5967E+02
    -19.724  0.3852E+02  0.6025E+02
    -19.709  0.3849E+02  0.6083E+02
    -19.694  0.3842E+02  0.6141E+02
    -19.679  0.3832E+02  0.6198E+02
    -19.664  0.3820E+02  0.6256E+02
    -19.649  0.3805E+02  0.6313E+02
    -19.634  0.3788E+02  0.6370E+02
    -19.619  0.3770E+02  0.6426E+02
    -19.604  0.3752E+02  0.6483E+02
    -19.589  0.3733E+02  0.6539E+02
    -19.573  0.3713E+02  0.6595E+02
    -19.558  0.3693E+02  0.6650E+02
    -19.543  0.3672E+02  0.6705E+02
    -19.528  0.3651E+02  0.6760E+02
    -19.513  0.3630E+02  0.6815E+02
    -19.498  0.3609E+02  0.6869E+02
    -19.483  0.3587E+02  0.6923E+02
    -19.468  0.3565E+02  0.6977E+02
    -19.453  0.3543E+02  0.7030E+02
    -19.438  0.3521E+02  0.7083E+02
    -19.423  0.3500E+02  0.7135E+02
    -19.408  0.3480E+02  0.7188E+02
    -19.393  0.3461E+02  0.7240E+02
    -19.378  0.3444E+02  0.7291E+02
    -19.363  0.3430E+02  0.7343E+02
    -19.348  0.3418E+02  0.7394E+02
    -19.333  0.3411E+02  0.7445E+02
    -19.318  0.3407E+02  0.7497E+02
    -19.303  0.3408E+02  0.7548E+02
    -19.288  0.3413E+02  0.7599E+02
    -19.273  0.3423E+02  0.7651E+02
    -19.258  0.3438E+02  0.7702E+02
    -19.243  0.3457E+02  0.7754E+02
    -19.228  0.3481E+02  0.7806E+02
    -19.213  0.3510E+02  0.7859E+02
    -19.198  0.3541E+02  0.7912E+02
    -19.183  0.3577E+02  0.7966E+02
    -19.168  0.3614E+02  0.8020E+02
    -19.153  0.3653E+02  0.8075E+02
    -19.138  0.3693E+02  0.8131E+02
    -19.123  0.3734E+02  0.8187E+02
    -19.108  0.3774E+02  0.8244E+02
    -19.093  0.3813E+02  0.8301E+02
    -19.078  0.3850E+02  0.8359E+02
    -19.063  0.3885E+02  0.8417E+02
    -19.048  0.3918E+02  0.8476E+02
    -19.033  0.3947E+02  0.8535E+02
    -19.017  0.3973E+02  0.8595E+02
    -19.002  0.3995E+02  0.8655E+02
    -18.987  0.4014E+02  0.8715E+02
    -18.972  0.4030E+02  0.8776E+02
    -18.957  0.4042E+02  0.8837E+02
    -18.942  0.4052E+02  0.8898E+02
    -18.927  0.4058E+02  0.8959E+02
    -18.912  0.4062E+02  0.9020E+02
    -18.897  0.4063E+02  0.9081E+02
    -18.882  0.4062E+02  0.9142E+02
    -18.867  0.4059E+02  0.9203E+02
    -18.852  0.4054E+02  0.9264E+02
    -18.837  0.4048E+02  0.9325E+02
    -18.822  0.4039E+02  0.9385E+02
    -18.807  0.4030E+02  0.9446E+02
    -18.792  0.4018E+02  0.9506E+02
    -18.777  0.4005E+02  0.9566E+02
    -18.762  0.3990E+02  0.9626E+02
    -18.747  0.3974E+02  0.9686E+02
    -18.732  0.3956E+02  0.9745E+02
    -18.717  0.3936E+02  0.9805E+02
    -18.702  0.3915E+02  0.9863E+02
    -18.687  0.3893E+02  0.9922E+02
    -18.672  0.3871E+02  0.9980E+02
    -18.657  0.3848E+02  0.1004E+03
    -18.642  0.3825E+02  0.1010E+03
    -18.627  0.3803E+02  0.1015E+03
    -18.612  0.3782E+02  0.1021E+03
    -18.597  0.3762E+02  0.1027E+03
    -18.582  0.3745E+02  0.1032E+03
    -18.567  0.3730E+02  0.1038E+03
    -18.552  0.3717E+02  0.1043E+03
    -18.537  0.3708E+02  0.1049E+03
    -18.522  0.3702E+02  0.1055E+03
    -18.507  0.3698E+02  0.1060E+03
    -18.492  0.3698E+02  0.1066E+03
    -18.477  0.3699E+02  0.1071E+03
    -18.462  0.3703E+02  0.1077E+03
    -18.446  0.3708E+02  0.1082E+03
    -18.431  0.3713E+02  0.1088E+03
    -18.416  0.3719E+02  0.1094E+03
    -18.401  0.3724E+02  0.1099E+03
    -18.386  0.3727E+02  0.1105E+03
    -18.371  0.3729E+02  0.1110E+03
    -18.356  0.3728E+02  0.1116E+03
    -18.341  0.3725E+02  0.1122E+03
    -18.326  0.3718E+02  0.1127E+03
    -18.311  0.3707E+02  0.1133E+03
    -18.296  0.3693E+02  0.1138E+03
    -18.281  0.3676E+02  0.1144E+03
    -18.266  0.3655E+02  0.1149E+03
    -18.251  0.3632E+02  0.1155E+03
    -18.236  0.3606E+02  0.1160E+03
    -18.221  0.3580E+02  0.1165E+03
    -18.206  0.3552E+02  0.1171E+03
    -18.191  0.3525E+02  0.1176E+03
    -18.176  0.3499E+02  0.1181E+03
    -18.161  0.3474E+02  0.1187E+03
    -18.146  0.3452E+02  0.1192E+03
    -18.131  0.3434E+02  0.1197E+03
    -18.116  0.3419E+02  0.1202E+03
    -18.101  0.3409E+02  0.1207E+03
    -18.086  0.3403E+02  0.1212E+03
    -18.071  0.3401E+02  0.1217E+03
    -18.056  0.3404E+02  0.1223E+03
    -18.041  0.3412E+02  0.1228E+03
    -18.026  0.3423E+02  0.1233E+03
    -18.011  0.3438E+02  0.1238E+03
    -17.996  0.3456E+02  0.1243E+03
    -17.981  0.3476E+02  0.1248E+03
    -17.966  0.3498E+02  0.1254E+03
    -17.951  0.3521E+02  0.1259E+03
    -17.936  0.3544E+02  0.1264E+03
    -17.921  0.3567E+02  0.1270E+03
    -17.906  0.3589E+02  0.1275E+03
    -17.890  0.3611E+02  0.1280E+03
    -17.875  0.3631E+02  0.1286E+03
    -17.860  0.3650E+02  0.1291E+03
    -17.845  0.3667E+02  0.1297E+03
    -17.830  0.3683E+02  0.1302E+03
    -17.815  0.3697E+02  0.1308E+03
    -17.800  0.3710E+02  0.1314E+03
    -17.785  0.3722E+02  0.1319E+03
    -17.770  0.3733E+02  0.1325E+03
    -17.755  0.3744E+02  0.1330E+03
    -17.740  0.3754E+02  0.1336E+03
    -17.725  0.3764E+02  0.1342E+03
    -17.710  0.3775E+02  0.1347E+03
    -17.695  0.3786E+02  0.1353E+03
    -17.680  0.3798E+02  0.1359E+03
    -17.665  0.3811E+02  0.1364E+03
    -17.650  0.3825E+02  0.1370E+03
    -17.635  0.3839E+02  0.1376E+03
    -17.620  0.3854E+02  0.1382E+03
    -17.605  0.3870E+02  0.1388E+03
    -17.590  0.3886E+02  0.1393E+03
    -17.575  0.3903E+02  0.1399E+03
    -17.560  0.3919E+02  0.1405E+03
    -17.545  0.3935E+02  0.1411E+03
    -17.530  0.3950E+02  0.1417E+03
    -17.515  0.3965E+02  0.1423E+03
    -17.500  0.3978E+02  0.1429E+03
    -17.485  0.3990E+02  0.1435E+03
    -17.470  0.4000E+02  0.1441E+03
    -17.455  0.4008E+02  0.1447E+03
    -17.440  0.4014E+02  0.1453E+03
    -17.425  0.4018E+02  0.1459E+03
    -17.410  0.4020E+02  0.1465E+03
    -17.395  0.4019E+02  0.1471E+03
    -17.380  0.4016E+02  0.1477E+03
    -17.365  0.4011E+02  0.1483E+03
    -17.350  0.4004E+02  0.1489E+03
    -17.335  0.3995E+02  0.1495E+03
    -17.319  0.3985E+02  0.1501E+03
    -17.304  0.3973E+02  0.1507E+03
    -17.289  0.3959E+02  0.1513E+03
    -17.274  0.3946E+02  0.1519E+03
    -17.259  0.3931E+02  0.1525E+03
    -17.244  0.3917E+02  0.1531E+03
    -17.229  0.3903E+02  0.1537E+03
    -17.214  0.3890E+02  0.1543E+03
    -17.199  0.3879E+02  0.1548E+03
    -17.184  0.3869E+02  0.1554E+03
    -17.169  0.3862E+02  0.1560E+03
    -17.154  0.3857E+02  0.1566E+03
    -17.139  0.3856E+02  0.1572E+03
    -17.124  0.3858E+02  0.1577E+03
    -17.109  0.3863E+02  0.1583E+03
    -17.094  0.3872E+02  0.1589E+03
    -17.079  0.3885E+02  0.1595E+03
    -17.064  0.3901E+02  0.1601E+03
    -17.049  0.3920E+02  0.1607E+03
    -17.034  0.3942E+02  0.1613E+03
    -17.019  0.3966E+02  0.1619E+03
    -17.004  0.3992E+02  0.1625E+03
    -16.989  0.4019E+02  0.1631E+03
    -16.974  0.4047E+02  0.1637E+03
    -16.959  0.4076E+02  0.1643E+03
    -16.944  0.4104E+02  0.1649E+03
    -16.929  0.4130E+02  0.1655E+03
    -16.914  0.4155E+02  0.1661E+03
    -16.899  0.4179E+02  0.1668E+03
    -16.884  0.4199E+02  0.1674E+03
    -16.869  0.4216E+02  0.1680E+03
    -16.854  0.4230E+02  0.1687E+03
    -16.839  0.4241E+02  0.1693E+03
    -16.824  0.4248E+02  0.1699E+03
    -16.809  0.4251E+02  0.1706E+03
    -16.794  0.4250E+02  0.1712E+03
    -16.779  0.4246E+02  0.1719E+03
    -16.763  0.4238E+02  0.1725E+03
    -16.748  0.4227E+02  0.1731E+03
    -16.733  0.4213E+02  0.1738E+03
    -16.718  0.4196E+02  0.1744E+03
    -16.703  0.4177E+02  0.1750E+03
    -16.688  0.4155E+02  0.1756E+03
    -16.673  0.4131E+02  0.1763E+03
    -16.658  0.4105E+02  0.1769E+03
    -16.643  0.4077E+02  0.1775E+03
    -16.628  0.4048E+02  0.1781E+03
    -16.613  0.4017E+02  0.1787E+03
    -16.598  0.3985E+02  0.1793E+03
    -16.583  0.3953E+02  0.1799E+03
    -16.568  0.3919E+02  0.1805E+03
    -16.553  0.3885E+02  0.1811E+03
    -16.538  0.3851E+02  0.1817E+03
    -16.523  0.3817E+02  0.1822E+03
    -16.508  0.3783E+02  0.1828E+03
    -16.493  0.3749E+02  0.1834E+03
    -16.478  0.3717E+02  0.1839E+03
    -16.463  0.3687E+02  0.1845E+03
    -16.448  0.3658E+02  0.1850E+03
    -16.433  0.3631E+02  0.1856E+03
    -16.418  0.3607E+02  0.1861E+03
    -16.403  0.3586E+02  0.1866E+03
    -16.388  0.3567E+02  0.1872E+03
    -16.373  0.3551E+02  0.1877E+03
    -16.358  0.3539E+02  0.1882E+03
    -16.343  0.3529E+02  0.1888E+03
    -16.328  0.3523E+02  0.1893E+03
    -16.313  0.3519E+02  0.1898E+03
    -16.298  0.3518E+02  0.1904E+03
    -16.283  0.3519E+02  0.1909E+03
    -16.268  0.3522E+02  0.1914E+03
    -16.253  0.3528E+02  0.1920E+03
    -16.238  0.3535E+02  0.1925E+03
    -16.223  0.3544E+02  0.1930E+03
    -16.207  0.3555E+02  0.1936E+03
    -16.192  0.3568E+02  0.1941E+03
    -16.177  0.3583E+02  0.1946E+03
    -16.162  0.3599E+02  0.1952E+03
    -16.147  0.3617E+02  0.1957E+03
    -16.132  0.3637E+02  0.1963E+03
    -16.117  0.3659E+02  0.1968E+03
    -16.102  0.3682E+02  0.1974E+03
    -16.087  0.3707E+02  0.1979E+03
    -16.072  0.3732E+02  0.1985E+03
    -16.057  0.3758E+02  0.1990E+03
    -16.042  0.3785E+02  0.1996E+03
    -16.027  0.3811E+02  0.2002E+03
    -16.012  0.3836E+02  0.2008E+03
    -15.997  0.3859E+02  0.2013E+03
    -15.982  0.3881E+02  0.2019E+03
    -15.967  0.3901E+02  0.2025E+03
    -15.952  0.3918E+02  0.2031E+03
    -15.937  0.3932E+02  0.2037E+03
    -15.922  0.3943E+02  0.2043E+03
    -15.907  0.3951E+02  0.2049E+03
    -15.892  0.3956E+02  0.2055E+03
    -15.877  0.3958E+02  0.2061E+03
    -15.862  0.3958E+02  0.2067E+03
    -15.847  0.3955E+02  0.2073E+03
    -15.832  0.3951E+02  0.2078E+03
    -15.817  0.3945E+02  0.2084E+03
    -15.802  0.3939E+02  0.2090E+03
    -15.787  0.3931E+02  0.2096E+03
    -15.772  0.3924E+02  0.2102E+03
    -15.757  0.3916E+02  0.2108E+03
    -15.742  0.3908E+02  0.2114E+03
    -15.727  0.3901E+02  0.2120E+03
    -15.712  0.3893E+02  0.2126E+03
    -15.697  0.3886E+02  0.2131E+03
    -15.682  0.3880E+02  0.2137E+03
    -15.667  0.3874E+02  0.2143E+03
    -15.652  0.3867E+02  0.2149E+03
    -15.636  0.3861E+02  0.2155E+03
    -15.621  0.3855E+02  0.2160E+03
    -15.606  0.3849E+02  0.2166E+03
    -15.591  0.3843E+02  0.2172E+03
    -15.576  0.3837E+02  0.2178E+03
    -15.561  0.3830E+02  0.2184E+03
    -15.546  0.3823E+02  0.2189E+03
    -15.531  0.3815E+02  0.2195E+03
    -15.516  0.3807E+02  0.2201E+03
    -15.501  0.3799E+02  0.2206E+03
    -15.486  0.3790E+02  0.2212E+03
    -15.471  0.3781E+02  0.2218E+03
    -15.456  0.3770E+02  0.2224E+03
    -15.441  0.3760E+02  0.2229E+03
    -15.426  0.3748E+02  0.2235E+03
    -15.411  0.3735E+02  0.2240E+03
    -15.396  0.3721E+02  0.2246E+03
    -15.381  0.3706E+02  0.2252E+03
    -15.366  0.3689E+02  0.2257E+03
    -15.351  0.3671E+02  0.2263E+03
    -15.336  0.3651E+02  0.2268E+03
    -15.321  0.3629E+02  0.2274E+03
    -15.306  0.3607E+02  0.2279E+03
    -15.291  0.3583E+02  0.2284E+03
    -15.276  0.3559E+02  0.2290E+03
    -15.261  0.3535E+02  0.2295E+03
    -15.246  0.3512E+02  0.2300E+03
    -15.231  0.3491E+02  0.2306E+03
    -15.216  0.3473E+02  0.2311E+03
    -15.201  0.3458E+02  0.2316E+03
    -15.186  0.3448E+02  0.2321E+03
    -15.171  0.3443E+02  0.2326E+03
    -15.156  0.3443E+02  0.2331E+03
    -15.141  0.3450E+02  0.2337E+03
    -15.126  0.3464E+02  0.2342E+03
    -15.111  0.3483E+02  0.2347E+03
    -15.096  0.3509E+02  0.2352E+03
    -15.080  0.3541E+02  0.2358E+03
    -15.065  0.3578E+02  0.2363E+03
    -15.050  0.3618E+02  0.2369E+03
    -15.035  0.3662E+02  0.2374E+03
    -15.020  0.3708E+02  0.2380E+03
    -15.005  0.3755E+02  0.2385E+03
    -14.990  0.3801E+02  0.2391E+03
    -14.975  0.3846E+02  0.2397E+03
    -14.960  0.3889E+02  0.2403E+03
    -14.945  0.3929E+02  0.2408E+03
    -14.930  0.3966E+02  0.2414E+03
    -14.915  0.3998E+02  0.2420E+03
    -14.900  0.4027E+02  0.2426E+03
    -14.885  0.4052E+02  0.2433E+03
    -14.870  0.4072E+02  0.2439E+03
    -14.855  0.4089E+02  0.2445E+03
    -14.840  0.4103E+02  0.2451E+03
    -14.825  0.4113E+02  0.2457E+03
    -14.810  0.4121E+02  0.2463E+03
    -14.795  0.4127E+02  0.2470E+03
    -14.780  0.4130E+02  0.2476E+03
    -14.765  0.4132E+02  0.2482E+03
    -14.750  0.4132E+02  0.2488E+03
    -14.735  0.4131E+02  0.2494E+03
    -14.720  0.4129E+02  0.2501E+03
    -14.705  0.4125E+02  0.2507E+03
    -14.690  0.4121E+02  0.2513E+03
    -14.675  0.4115E+02  0.2519E+03
    -14.660  0.4108E+02  0.2525E+03
    -14.645  0.4100E+02  0.2532E+03
    -14.630  0.4091E+02  0.2538E+03
    -14.615  0.4082E+02  0.2544E+03
    -14.600  0.4072E+02  0.2550E+03
    -14.585  0.4062E+02  0.2556E+03
    -14.570  0.4051E+02  0.2562E+03
    -14.555  0.4041E+02  0.2568E+03
    -14.540  0.4031E+02  0.2574E+03
    -14.525  0.4021E+02  0.2580E+03
    -14.509  0.4013E+02  0.2586E+03
    -14.494  0.4005E+02  0.2592E+03
    -14.479  0.3998E+02  0.2598E+03
    -14.464  0.3993E+02  0.2604E+03
    -14.449  0.3988E+02  0.2610E+03
    -14.434  0.3984E+02  0.2616E+03
    -14.419  0.3981E+02  0.2622E+03
    -14.404  0.3979E+02  0.2628E+03
    -14.389  0.3977E+02  0.2634E+03
    -14.374  0.3975E+02  0.2640E+03
    -14.359  0.3973E+02  0.2646E+03
    -14.344  0.3971E+02  0.2652E+03
    -14.329  0.3968E+02  0.2658E+03
    -14.314  0.3965E+02  0.2664E+03
    -14.299  0.3962E+02  0.2670E+03
    -14.284  0.3959E+02  0.2676E+03
    -14.269  0.3955E+02  0.2682E+03
    -14.254  0.3951E+02  0.2688E+03
    -14.239  0.3947E+02  0.2694E+03
    -14.224  0.3943E+02  0.2700E+03
    -14.209  0.3939E+02  0.2706E+03
    -14.194  0.3935E+02  0.2712E+03
    -14.179  0.3932E+02  0.2717E+03
    -14.164  0.3929E+02  0.2723E+03
    -14.149  0.3926E+02  0.2729E+03
    -14.134  0.3923E+02  0.2735E+03
    -14.119  0.3921E+02  0.2741E+03
    -14.104  0.3917E+02  0.2747E+03
    -14.089  0.3914E+02  0.2753E+03
    -14.074  0.3910E+02  0.2759E+03
    -14.059  0.3905E+02  0.2765E+03
    -14.044  0.3899E+02  0.2770E+03
    -14.029  0.3891E+02  0.2776E+03
    -14.014  0.3883E+02  0.2782E+03
    -13.999  0.3874E+02  0.2788E+03
    -13.984  0.3863E+02  0.2794E+03
    -13.969  0.3852E+02  0.2800E+03
    -13.953  0.3840E+02  0.2805E+03
    -13.938  0.3828E+02  0.2811E+03
    -13.923  0.3816E+02  0.2817E+03
    -13.908  0.3804E+02  0.2823E+03
    -13.893  0.3793E+02  0.2828E+03
    -13.878  0.3783E+02  0.2834E+03
    -13.863  0.3775E+02  0.2840E+03
    -13.848  0.3768E+02  0.2845E+03
    -13.833  0.3762E+02  0.2851E+03
    -13.818  0.3759E+02  0.2857E+03
    -13.803  0.3757E+02  0.2862E+03
    -13.788  0.3758E+02  0.2868E+03
    -13.773  0.3761E+02  0.2873E+03
    -13.758  0.3766E+02  0.2879E+03
    -13.743  0.3773E+02  0.2885E+03
    -13.728  0.3782E+02  0.2890E+03
    -13.713  0.3793E+02  0.2896E+03
    -13.698  0.3805E+02  0.2902E+03
    -13.683  0.3820E+02  0.2908E+03
    -13.668  0.3836E+02  0.2913E+03
    -13.653  0.3853E+02  0.2919E+03
    -13.638  0.3872E+02  0.2925E+03
    -13.623  0.3891E+02  0.2931E+03
    -13.608  0.3912E+02  0.2937E+03
    -13.593  0.3932E+02  0.2943E+03
    -13.578  0.3953E+02  0.2949E+03
    -13.563  0.3974E+02  0.2955E+03
    -13.548  0.3994E+02  0.2961E+03
    -13.533  0.4014E+02  0.2967E+03
    -13.518  0.4032E+02  0.2973E+03
    -13.503  0.4050E+02  0.2979E+03
    -13.488  0.4066E+02  0.2985E+03
    -13.473  0.4080E+02  0.2991E+03
    -13.458  0.4093E+02  0.2997E+03
    -13.443  0.4105E+02  0.3003E+03
    -13.428  0.4114E+02  0.3009E+03
    -13.413  0.4122E+02  0.3016E+03
    -13.398  0.4128E+02  0.3022E+03
    -13.382  0.4132E+02  0.3028E+03
    -13.367  0.4134E+02  0.3034E+03
    -13.352  0.4135E+02  0.3041E+03
    -13.337  0.4135E+02  0.3047E+03
    -13.322  0.4132E+02  0.3053E+03
    -13.307  0.4129E+02  0.3059E+03
    -13.292  0.4124E+02  0.3065E+03
    -13.277  0.4118E+02  0.3072E+03
    -13.262  0.4111E+02  0.3078E+03
    -13.247  0.4103E+02  0.3084E+03
    -13.232  0.4094E+02  0.3090E+03
    -13.217  0.4085E+02  0.3096E+03
    -13.202  0.4076E+02  0.3102E+03
    -13.187  0.4067E+02  0.3108E+03
    -13.172  0.4059E+02  0.3114E+03
    -13.157  0.4051E+02  0.3121E+03
    -13.142  0.4044E+02  0.3127E+03
    -13.127  0.4038E+02  0.3133E+03
    -13.112  0.4034E+02  0.3139E+03
    -13.097  0.4031E+02  0.3145E+03
    -13.082  0.4030E+02  0.3151E+03
    -13.067  0.4031E+02  0.3157E+03
    -13.052  0.4033E+02  0.3163E+03
    -13.037  0.4037E+02  0.3169E+03
    -13.022  0.4043E+02  0.3175E+03
    -13.007  0.4050E+02  0.3181E+03
    -12.992  0.4058E+02  0.3187E+03
    -12.977  0.4066E+02  0.3193E+03
    -12.962  0.4074E+02  0.3200E+03
    -12.947  0.4083E+02  0.3206E+03
    -12.932  0.4091E+02  0.3212E+03
    -12.917  0.4098E+02  0.3218E+03
    -12.902  0.4105E+02  0.3224E+03
    -12.887  0.4110E+02  0.3230E+03
    -12.872  0.4114E+02  0.3237E+03
    -12.857  0.4116E+02  0.3243E+03
    -12.842  0.4117E+02  0.3249E+03
    -12.826  0.4117E+02  0.3255E+03
    -12.811  0.4116E+02  0.3261E+03
    -12.796  0.4114E+02  0.3267E+03
    -12.781  0.4111E+02  0.3274E+03
    -12.766  0.4108E+02  0.3280E+03
    -12.751  0.4106E+02  0.3286E+03
    -12.736  0.4103E+02  0.3292E+03
    -12.721  0.4101E+02  0.3298E+03
    -12.706  0.4100E+02  0.3304E+03
    -12.691  0.4099E+02  0.3311E+03
    -12.676  0.4099E+02  0.3317E+03
    -12.661  0.4100E+02  0.3323E+03
    -12.646  0.4101E+02  0.3329E+03
    -12.631  0.4103E+02  0.3335E+03
    -12.616  0.4105E+02  0.3341E+03
    -12.601  0.4107E+02  0.3348E+03
    -12.586  0.4109E+02  0.3354E+03
    -12.571  0.4111E+02  0.3360E+03
    -12.556  0.4113E+02  0.3366E+03
    -12.541  0.4116E+02  0.3372E+03
    -12.526  0.4118E+02  0.3379E+03
    -12.511  0.4121E+02  0.3385E+03
    -12.496  0.4125E+02  0.3391E+03
    -12.481  0.4129E+02  0.3397E+03
    -12.466  0.4135E+02  0.3403E+03
    -12.451  0.4142E+02  0.3410E+03
    -12.436  0.4151E+02  0.3416E+03
    -12.421  0.4161E+02  0.3422E+03
    -12.406  0.4172E+02  0.3428E+03
    -12.391  0.4186E+02  0.3435E+03
    -12.376  0.4200E+02  0.3441E+03
    -12.361  0.4215E+02  0.3447E+03
    -12.346  0.4231E+02  0.3454E+03
    -12.331  0.4247E+02  0.3460E+03
    -12.316  0.4262E+02  0.3466E+03
    -12.301  0.4275E+02  0.3473E+03
    -12.286  0.4287E+02  0.3479E+03
    -12.270  0.4296E+02  0.3486E+03
    -12.255  0.4302E+02  0.3492E+03
    -12.240  0.4305E+02  0.3499E+03
    -12.225  0.4304E+02  0.3505E+03
    -12.210  0.4300E+02  0.3512E+03
    -12.195  0.4292E+02  0.3518E+03
    -12.180  0.4281E+02  0.3524E+03
    -12.165  0.4267E+02  0.3531E+03
    -12.150  0.4251E+02  0.3537E+03
    -12.135  0.4234E+02  0.3544E+03
    -12.120  0.4216E+02  0.3550E+03
    -12.105  0.4197E+02  0.3556E+03
    -12.090  0.4180E+02  0.3563E+03
    -12.075  0.4164E+02  0.3569E+03
    -12.060  0.4150E+02  0.3575E+03
    -12.045  0.4139E+02  0.3581E+03
    -12.030  0.4132E+02  0.3587E+03
    -12.015  0.4127E+02  0.3594E+03
    -12.000  0.4127E+02  0.3600E+03
    -11.985  0.4129E+02  0.3606E+03
    -11.970  0.4135E+02  0.3612E+03
    -11.955  0.4144E+02  0.3619E+03
    -11.940  0.4155E+02  0.3625E+03
    -11.925  0.4167E+02  0.3631E+03
    -11.910  0.4181E+02  0.3637E+03
    -11.895  0.4195E+02  0.3644E+03
    -11.880  0.4210E+02  0.3650E+03