 108 108   0   0
  0.5078268E+02  0.1989502E-08  0.1378367E-08  0.2000000E-08  0.5000000E-15
  1.000000000000000E-004
  CAR 
 unknown system                          
      3.12627064    -24.80607504 2000     -3.76669975      1.00000000
    -24.806  0.0000E+00  0.0000E+00
    -24.792  0.0000E+00  0.0000E+00
    -24.778  0.0000E+00  0.0000E+00
    -24.764  0.0000E+00  0.0000E+00
    -24.750  0.0000E+00  0.0000E+00
    -24.736  0.0000E+00  0.0000E+00
    -24.722  0.0000E+00  0.0000E+00
    -24.708  0.0000E+00  0.0000E+00
    -24.694  0.0000E+00  0.0000E+00
    -24.680  0.0000E+00  0.0000E+00
    -24.666  0.0000E+00  0.0000E+00
    -24.652  0.0000E+00  0.0000E+00
    -24.638  0.0000E+00  0.0000E+00
    -24.624  0.0000E+00  0.0000E+00
    -24.610  0.0000E+00  0.0000E+00
    -24.596  0.0000E+00  0.0000E+00
    -24.583  0.0000E+00  0.0000E+00
    -24.569  0.0000E+00  0.0000E+00
    -24.555  0.0000E+00  0.0000E+00
    -24.541  0.0000E+00  0.0000E+00
    -24.527  0.0000E+00  0.0000E+00
    -24.513  0.0000E+00  0.0000E+00
    -24.499  0.0000E+00  0.0000E+00
    -24.485  0.0000E+00  0.0000E+00
    -24.471  0.0000E+00  0.0000E+00
    -24.457  0.0000E+00  0.0000E+00
    -24.443  0.0000E+00  0.0000E+00
    -24.429  0.0000E+00  0.0000E+00
    -24.415  0.0000E+00  0.0000E+00
    -24.401  0.0000E+00  0.0000E+00
    -24.387  0.0000E+00  0.0000E+00
    -24.373  0.0000E+00  0.0000E+00
    -24.359  0.0000E+00  0.0000E+00
    -24.345  0.0000E+00  0.0000E+00
    -24.331  0.0000E+00  0.0000E+00
    -24.317  0.0000E+00  0.0000E+00
    -24.303  0.0000E+00  0.0000E+00
    -24.289  0.0000E+00  0.0000E+00
    -24.275  0.0000E+00  0.0000E+00
    -24.261  0.0000E+00  0.0000E+00
    -24.247  0.0000E+00  0.0000E+00
    -24.233  0.0000E+00  0.0000E+00
    -24.219  0.0000E+00  0.0000E+00
    -24.205  0.0000E+00  0.0000E+00
    -24.191  0.0000E+00  0.0000E+00
    -24.177  0.0000E+00  0.0000E+00
    -24.163  0.0000E+00  0.0000E+00
    -24.149  0.0000E+00  0.0000E+00
    -24.135  0.0000E+00  0.0000E+00
    -24.121  0.0000E+00  0.0000E+00
    -24.107  0.0000E+00  0.0000E+00
    -24.093  0.0000E+00  0.0000E+00
    -24.079  0.0000E+00  0.0000E+00
    -24.065  0.0000E+00  0.0000E+00
    -24.052  0.0000E+00  0.0000E+00
    -24.038  0.0000E+00  0.0000E+00
    -24.024  0.0000E+00  0.0000E+00
    -24.010  0.0000E+00  0.0000E+00
    -23.996  0.0000E+00  0.0000E+00
    -23.982  0.7945E-14  0.1110E-15
    -23.968  0.7945E-14  0.2220E-15
    -23.954  0.1589E-13  0.4441E-15
    -23.940  0.4061E-13  0.1012E-14
    -23.926  0.9005E-13  0.2270E-14
    -23.912  0.1925E-12  0.4959E-14
    -23.898  0.4211E-12  0.1084E-13
    -23.884  0.9022E-12  0.2345E-13
    -23.870  0.1912E-11  0.5017E-13
    -23.856  0.4027E-11  0.1064E-12
    -23.842  0.8389E-11  0.2237E-12
    -23.828  0.1730E-10  0.4654E-12
    -23.814  0.3534E-10  0.9592E-12
    -23.800  0.7150E-10  0.1958E-11
    -23.786  0.1432E-09  0.3959E-11
    -23.772  0.2841E-09  0.7929E-11
    -23.758  0.5581E-09  0.1573E-10
    -23.744  0.1086E-08  0.3090E-10
    -23.730  0.2092E-08  0.6013E-10
    -23.716  0.3991E-08  0.1159E-09
    -23.702  0.7541E-08  0.2213E-09
    -23.688  0.1411E-07  0.4184E-09
    -23.674  0.2614E-07  0.7837E-09
    -23.660  0.4797E-07  0.1454E-08
    -23.646  0.8716E-07  0.2672E-08
    -23.632  0.1568E-06  0.4863E-08
    -23.618  0.2795E-06  0.8769E-08
    -23.604  0.4932E-06  0.1566E-07
    -23.590  0.8619E-06  0.2770E-07
    -23.576  0.1492E-05  0.4854E-07
    -23.562  0.2556E-05  0.8426E-07
    -23.548  0.4338E-05  0.1449E-06
    -23.535  0.7291E-05  0.2468E-06
    -23.521  0.1213E-04  0.4163E-06
    -23.507  0.2000E-04  0.6958E-06
    -23.493  0.3264E-04  0.1152E-05
    -23.479  0.5276E-04  0.1889E-05
    -23.465  0.8445E-04  0.3069E-05
    -23.451  0.1339E-03  0.4940E-05
    -23.437  0.2101E-03  0.7876E-05
    -23.423  0.3267E-03  0.1244E-04
    -23.409  0.5029E-03  0.1947E-04
    -23.395  0.7666E-03  0.3018E-04
    -23.381  0.1157E-02  0.4635E-04
    -23.367  0.1730E-02  0.7053E-04
    -23.353  0.2562E-02  0.1063E-03
    -23.339  0.3756E-02  0.1588E-03
    -23.325  0.5453E-02  0.2350E-03
    -23.311  0.7840E-02  0.3445E-03
    -23.297  0.1116E-01  0.5005E-03
    -23.283  0.1574E-01  0.7205E-03
    -23.269  0.2198E-01  0.1028E-02
    -23.255  0.3040E-01  0.1452E-02
    -23.241  0.4162E-01  0.2034E-02
    -23.227  0.5645E-01  0.2823E-02
    -23.213  0.7581E-01  0.3882E-02
    -23.199  0.1008E+00  0.5291E-02
    -23.185  0.1328E+00  0.7146E-02
    -23.171  0.1732E+00  0.9566E-02
    -23.157  0.2237E+00  0.1269E-01
    -23.143  0.2862E+00  0.1669E-01
    -23.129  0.3625E+00  0.2176E-01
    -23.115  0.4548E+00  0.2811E-01
    -23.101  0.5650E+00  0.3601E-01
    -23.087  0.6952E+00  0.4572E-01
    -23.073  0.8472E+00  0.5756E-01
    -23.059  0.1022E+01  0.7185E-01
    -23.045  0.1222E+01  0.8892E-01
    -23.031  0.1447E+01  0.1091E+00
    -23.018  0.1697E+01  0.1328E+00
    -23.004  0.1970E+01  0.1604E+00
    -22.990  0.2267E+01  0.1921E+00
    -22.976  0.2583E+01  0.2282E+00
    -22.962  0.2916E+01  0.2689E+00
    -22.948  0.3262E+01  0.3145E+00
    -22.934  0.3615E+01  0.3650E+00
    -22.920  0.3970E+01  0.4205E+00
    -22.906  0.4322E+01  0.4809E+00
    -22.892  0.4663E+01  0.5460E+00
    -22.878  0.4988E+01  0.6157E+00
    -22.864  0.5292E+01  0.6897E+00
    -22.850  0.5570E+01  0.7675E+00
    -22.836  0.5818E+01  0.8488E+00
    -22.822  0.6033E+01  0.9331E+00
    -22.808  0.6213E+01  0.1020E+01
    -22.794  0.6360E+01  0.1109E+01
    -22.780  0.6473E+01  0.1199E+01
    -22.766  0.6556E+01  0.1291E+01
    -22.752  0.6613E+01  0.1383E+01
    -22.738  0.6648E+01  0.1476E+01
    -22.724  0.6665E+01  0.1569E+01
    -22.710  0.6671E+01  0.1662E+01
    -22.696  0.6671E+01  0.1756E+01
    -22.682  0.6667E+01  0.1849E+01
    -22.668  0.6665E+01  0.1942E+01
    -22.654  0.6667E+01  0.2035E+01
    -22.640  0.6673E+01  0.2128E+01
    -22.626  0.6685E+01  0.2222E+01
    -22.612  0.6700E+01  0.2315E+01
    -22.598  0.6716E+01  0.2409E+01
    -22.584  0.6730E+01  0.2503E+01
    -22.570  0.6739E+01  0.2597E+01
    -22.556  0.6738E+01  0.2692E+01
    -22.542  0.6724E+01  0.2786E+01
    -22.528  0.6695E+01  0.2879E+01
    -22.514  0.6648E+01  0.2972E+01
    -22.501  0.6582E+01  0.3064E+01
    -22.487  0.6500E+01  0.3155E+01
    -22.473  0.6402E+01  0.3244E+01
    -22.459  0.6293E+01  0.3332E+01
    -22.445  0.6177E+01  0.3418E+01
    -22.431  0.6063E+01  0.3503E+01
    -22.417  0.5956E+01  0.3586E+01
    -22.403  0.5866E+01  0.3668E+01
    -22.389  0.5799E+01  0.3749E+01
    -22.375  0.5765E+01  0.3830E+01
    -22.361  0.5770E+01  0.3911E+01
    -22.347  0.5820E+01  0.3992E+01
    -22.333  0.5922E+01  0.4075E+01
    -22.319  0.6078E+01  0.4160E+01
    -22.305  0.6290E+01  0.4248E+01
    -22.291  0.6558E+01  0.4339E+01
    -22.277  0.6882E+01  0.4435E+01
    -22.263  0.7258E+01  0.4537E+01
    -22.249  0.7682E+01  0.4644E+01
    -22.235  0.8147E+01  0.4758E+01
    -22.221  0.8649E+01  0.4879E+01
    -22.207  0.9179E+01  0.5007E+01
    -22.193  0.9730E+01  0.5143E+01
    -22.179  0.1029E+02  0.5287E+01
    -22.165  0.1086E+02  0.5439E+01
    -22.151  0.1143E+02  0.5598E+01
    -22.137  0.1199E+02  0.5766E+01
    -22.123  0.1254E+02  0.5941E+01
    -22.109  0.1306E+02  0.6124E+01
    -22.095  0.1356E+02  0.6313E+01
    -22.081  0.1403E+02  0.6509E+01
    -22.067  0.1446E+02  0.6711E+01
    -22.053  0.1485E+02  0.6919E+01
    -22.039  0.1520E+02  0.7131E+01
    -22.025  0.1550E+02  0.7348E+01
    -22.011  0.1576E+02  0.7568E+01
    -21.997  0.1595E+02  0.7791E+01
    -21.983  0.1609E+02  0.8016E+01
    -21.970  0.1617E+02  0.8242E+01
    -21.956  0.1619E+02  0.8468E+01
    -21.942  0.1614E+02  0.8693E+01
    -21.928  0.1603E+02  0.8917E+01
    -21.914  0.1585E+02  0.9139E+01
    -21.900  0.1561E+02  0.9357E+01
    -21.886  0.1531E+02  0.9571E+01
    -21.872  0.1496E+02  0.9780E+01
    -21.858  0.1455E+02  0.9983E+01
    -21.844  0.1411E+02  0.1018E+02
    -21.830  0.1363E+02  0.1037E+02
    -21.816  0.1312E+02  0.1055E+02
    -21.802  0.1261E+02  0.1073E+02
    -21.788  0.1210E+02  0.1090E+02
    -21.774  0.1159E+02  0.1106E+02
    -21.760  0.1112E+02  0.1122E+02
    -21.746  0.1067E+02  0.1137E+02
    -21.732  0.1028E+02  0.1151E+02
    -21.718  0.9941E+01  0.1165E+02
    -21.704  0.9666E+01  0.1178E+02
    -21.690  0.9460E+01  0.1192E+02
    -21.676  0.9329E+01  0.1205E+02
    -21.662  0.9274E+01  0.1218E+02
    -21.648  0.9293E+01  0.1231E+02
    -21.634  0.9386E+01  0.1244E+02
    -21.620  0.9547E+01  0.1257E+02
    -21.606  0.9770E+01  0.1271E+02
    -21.592  0.1005E+02  0.1285E+02
    -21.578  0.1037E+02  0.1299E+02
    -21.564  0.1073E+02  0.1314E+02
    -21.550  0.1112E+02  0.1330E+02
    -21.536  0.1153E+02  0.1346E+02
    -21.522  0.1194E+02  0.1363E+02
    -21.508  0.1235E+02  0.1380E+02
    -21.494  0.1276E+02  0.1398E+02
    -21.480  0.1314E+02  0.1416E+02
    -21.466  0.1350E+02  0.1435E+02
    -21.453  0.1383E+02  0.1454E+02
    -21.439  0.1413E+02  0.1474E+02
    -21.425  0.1439E+02  0.1494E+02
    -21.411  0.1461E+02  0.1514E+02
    -21.397  0.1479E+02  0.1535E+02
    -21.383  0.1494E+02  0.1556E+02
    -21.369  0.1505E+02  0.1577E+02
    -21.355  0.1513E+02  0.1598E+02
    -21.341  0.1518E+02  0.1619E+02
    -21.327  0.1520E+02  0.1641E+02
    -21.313  0.1520E+02  0.1662E+02
    -21.299  0.1519E+02  0.1683E+02
    -21.285  0.1516E+02  0.1704E+02
    -21.271  0.1512E+02  0.1725E+02
    -21.257  0.1508E+02  0.1746E+02
    -21.243  0.1504E+02  0.1767E+02
    -21.229  0.1499E+02  0.1788E+02
    -21.215  0.1495E+02  0.1809E+02
    -21.201  0.1491E+02  0.1830E+02
    -21.187  0.1488E+02  0.1851E+02
    -21.173  0.1485E+02  0.1872E+02
    -21.159  0.1482E+02  0.1892E+02
    -21.145  0.1480E+02  0.1913E+02
    -21.131  0.1478E+02  0.1934E+02
    -21.117  0.1476E+02  0.1954E+02
    -21.103  0.1475E+02  0.1975E+02
    -21.089  0.1473E+02  0.1995E+02
    -21.075  0.1472E+02  0.2016E+02
    -21.061  0.1471E+02  0.2037E+02
    -21.047  0.1470E+02  0.2057E+02
    -21.033  0.1469E+02  0.2078E+02
    -21.019  0.1469E+02  0.2098E+02
    -21.005  0.1470E+02  0.2119E+02
    -20.991  0.1471E+02  0.2139E+02
    -20.977  0.1473E+02  0.2160E+02
    -20.963  0.1477E+02  0.2181E+02
    -20.949  0.1481E+02  0.2201E+02
    -20.936  0.1487E+02  0.2222E+02
    -20.922  0.1494E+02  0.2243E+02
    -20.908  0.1502E+02  0.2264E+02
    -20.894  0.1511E+02  0.2285E+02
    -20.880  0.1522E+02  0.2306E+02
    -20.866  0.1533E+02  0.2328E+02
    -20.852  0.1546E+02  0.2349E+02
    -20.838  0.1559E+02  0.2371E+02
    -20.824  0.1573E+02  0.2393E+02
    -20.810  0.1587E+02  0.2415E+02
    -20.796  0.1602E+02  0.2438E+02
    -20.782  0.1617E+02  0.2460E+02
    -20.768  0.1632E+02  0.2483E+02
    -20.754  0.1647E+02  0.2506E+02
    -20.740  0.1661E+02  0.2529E+02
    -20.726  0.1676E+02  0.2553E+02
    -20.712  0.1690E+02  0.2576E+02
    -20.698  0.1703E+02  0.2600E+02
    -20.684  0.1715E+02  0.2624E+02
    -20.670  0.1726E+02  0.2648E+02
    -20.656  0.1736E+02  0.2672E+02
    -20.642  0.1745E+02  0.2697E+02
    -20.628  0.1752E+02  0.2721E+02
    -20.614  0.1756E+02  0.2746E+02
    -20.600  0.1759E+02  0.2770E+02
    -20.586  0.1760E+02  0.2795E+02
    -20.572  0.1758E+02  0.2819E+02
    -20.558  0.1754E+02  0.2844E+02
    -20.544  0.1747E+02  0.2868E+02
    -20.530  0.1738E+02  0.2893E+02
    -20.516  0.1727E+02  0.2917E+02
    -20.502  0.1714E+02  0.2941E+02
    -20.488  0.1699E+02  0.2965E+02
    -20.474  0.1682E+02  0.2988E+02
    -20.460  0.1663E+02  0.3011E+02
    -20.446  0.1644E+02  0.3034E+02
    -20.432  0.1623E+02  0.3057E+02
    -20.419  0.1602E+02  0.3079E+02
    -20.405  0.1581E+02  0.3101E+02
    -20.391  0.1560E+02  0.3123E+02
    -20.377  0.1540E+02  0.3145E+02
    -20.363  0.1520E+02  0.3166E+02
    -20.349  0.1501E+02  0.3187E+02
    -20.335  0.1485E+02  0.3208E+02
    -20.321  0.1470E+02  0.3228E+02
    -20.307  0.1457E+02  0.3249E+02
    -20.293  0.1447E+02  0.3269E+02
    -20.279  0.1439E+02  0.3289E+02
    -20.265  0.1435E+02  0.3309E+02
    -20.251  0.1433E+02  0.3329E+02
    -20.237  0.1435E+02  0.3349E+02
    -20.223  0.1440E+02  0.3369E+02
    -20.209  0.1448E+02  0.3389E+02
    -20.195  0.1459E+02  0.3410E+02
    -20.181  0.1473E+02  0.3430E+02
    -20.167  0.1488E+02  0.3451E+02
    -20.153  0.1506E+02  0.3472E+02
    -20.139  0.1525E+02  0.3493E+02
    -20.125  0.1545E+02  0.3515E+02
    -20.111  0.1565E+02  0.3537E+02
    -20.097  0.1585E+02  0.3559E+02
    -20.083  0.1605E+02  0.3582E+02
    -20.069  0.1623E+02  0.3604E+02
    -20.055  0.1640E+02  0.3627E+02
    -20.041  0.1655E+02  0.3650E+02
    -20.027  0.1668E+02  0.3674E+02
    -20.013  0.1679E+02  0.3697E+02
    -19.999  0.1688E+02  0.3721E+02
    -19.985  0.1694E+02  0.3744E+02
    -19.971  0.1699E+02  0.3768E+02
    -19.957  0.1702E+02  0.3792E+02
    -19.943  0.1703E+02  0.3816E+02
    -19.929  0.1704E+02  0.3839E+02
    -19.915  0.1703E+02  0.3863E+02
    -19.901  0.1702E+02  0.3887E+02
    -19.888  0.1701E+02  0.3911E+02
    -19.874  0.1700E+02  0.3935E+02
    -19.860  0.1700E+02  0.3958E+02
    -19.846  0.1700E+02  0.3982E+02
    -19.832  0.1701E+02  0.4006E+02
    -19.818  0.1702E+02  0.4030E+02
    -19.804  0.1705E+02  0.4053E+02
    -19.790  0.1709E+02  0.4077E+02
    -19.776  0.1713E+02  0.4101E+02
    -19.762  0.1719E+02  0.4125E+02
    -19.748  0.1725E+02  0.4149E+02
    -19.734  0.1731E+02  0.4174E+02
    -19.720  0.1738E+02  0.4198E+02
    -19.706  0.1745E+02  0.4222E+02
    -19.692  0.1752E+02  0.4247E+02
    -19.678  0.1759E+02  0.4271E+02
    -19.664  0.1766E+02  0.4296E+02
    -19.650  0.1773E+02  0.4321E+02
    -19.636  0.1779E+02  0.4346E+02
    -19.622  0.1784E+02  0.4370E+02
    -19.608  0.1788E+02  0.4395E+02
    -19.594  0.1792E+02  0.4421E+02
    -19.580  0.1795E+02  0.4446E+02
    -19.566  0.1796E+02  0.4471E+02
    -19.552  0.1797E+02  0.4496E+02
    -19.538  0.1796E+02  0.4521E+02
    -19.524  0.1795E+02  0.4546E+02
    -19.510  0.1791E+02  0.4571E+02
    -19.496  0.1787E+02  0.4596E+02
    -19.482  0.1780E+02  0.4621E+02
    -19.468  0.1773E+02  0.4646E+02
    -19.454  0.1763E+02  0.4670E+02
    -19.440  0.1752E+02  0.4695E+02
    -19.426  0.1740E+02  0.4719E+02
    -19.412  0.1725E+02  0.4743E+02
    -19.398  0.1710E+02  0.4767E+02
    -19.384  0.1693E+02  0.4791E+02
    -19.371  0.1675E+02  0.4814E+02
    -19.357  0.1656E+02  0.4837E+02
    -19.343  0.1636E+02  0.4860E+02
    -19.329  0.1616E+02  0.4883E+02
    -19.315  0.1596E+02  0.4905E+02
    -19.301  0.1576E+02  0.4927E+02
    -19.287  0.1557E+02  0.4949E+02
    -19.273  0.1539E+02  0.4970E+02
    -19.259  0.1523E+02  0.4992E+02
    -19.245  0.1508E+02  0.5013E+02
    -19.231  0.1495E+02  0.5033E+02
    -19.217  0.1485E+02  0.5054E+02
    -19.203  0.1478E+02  0.5075E+02
    -19.189  0.1472E+02  0.5095E+02
    -19.175  0.1470E+02  0.5116E+02
    -19.161  0.1470E+02  0.5137E+02
    -19.147  0.1473E+02  0.5157E+02
    -19.133  0.1477E+02  0.5178E+02
    -19.119  0.1484E+02  0.5198E+02
    -19.105  0.1493E+02  0.5219E+02
    -19.091  0.1503E+02  0.5240E+02
    -19.077  0.1515E+02  0.5262E+02
    -19.063  0.1527E+02  0.5283E+02
    -19.049  0.1540E+02  0.5304E+02
    -19.035  0.1552E+02  0.5326E+02
    -19.021  0.1564E+02  0.5348E+02
    -19.007  0.1575E+02  0.5370E+02
    -18.993  0.1585E+02  0.5392E+02
    -18.979  0.1594E+02  0.5414E+02
    -18.965  0.1601E+02  0.5437E+02
    -18.951  0.1605E+02  0.5459E+02
    -18.937  0.1608E+02  0.5482E+02
    -18.923  0.1609E+02  0.5504E+02
    -18.909  0.1608E+02  0.5527E+02
    -18.895  0.1605E+02  0.5549E+02
    -18.881  0.1601E+02  0.5571E+02
    -18.867  0.1596E+02  0.5594E+02
    -18.854  0.1590E+02  0.5616E+02
    -18.840  0.1585E+02  0.5638E+02
    -18.826  0.1579E+02  0.5660E+02
    -18.812  0.1575E+02  0.5682E+02
    -18.798  0.1573E+02  0.5704E+02
    -18.784  0.1573E+02  0.5726E+02
    -18.770  0.1575E+02  0.5748E+02
    -18.756  0.1580E+02  0.5770E+02
    -18.742  0.1588E+02  0.5792E+02
    -18.728  0.1600E+02  0.5815E+02
    -18.714  0.1615E+02  0.5837E+02
    -18.700  0.1632E+02  0.5860E+02
    -18.686  0.1652E+02  0.5883E+02
    -18.672  0.1675E+02  0.5907E+02
    -18.658  0.1699E+02  0.5930E+02
    -18.644  0.1724E+02  0.5954E+02
    -18.630  0.1749E+02  0.5979E+02
    -18.616  0.1774E+02  0.6004E+02
    -18.602  0.1798E+02  0.6029E+02
    -18.588  0.1820E+02  0.6054E+02
    -18.574  0.1840E+02  0.6080E+02
    -18.560  0.1857E+02  0.6106E+02
    -18.546  0.1871E+02  0.6132E+02
    -18.532  0.1882E+02  0.6158E+02
    -18.518  0.1889E+02  0.6185E+02
    -18.504  0.1893E+02  0.6211E+02
    -18.490  0.1893E+02  0.6238E+02
    -18.476  0.1891E+02  0.6264E+02
    -18.462  0.1886E+02  0.6290E+02
    -18.448  0.1879E+02  0.6317E+02
    -18.434  0.1871E+02  0.6343E+02
    -18.420  0.1862E+02  0.6369E+02
    -18.406  0.1853E+02  0.6395E+02
    -18.392  0.1843E+02  0.6420E+02
    -18.378  0.1835E+02  0.6446E+02
    -18.364  0.1827E+02  0.6472E+02
    -18.350  0.1821E+02  0.6497E+02
    -18.337  0.1817E+02  0.6522E+02
    -18.323  0.1815E+02  0.6548E+02
    -18.309  0.1814E+02  0.6573E+02
    -18.295  0.1815E+02  0.6599E+02
    -18.281  0.1818E+02  0.6624E+02
    -18.267  0.1823E+02  0.6649E+02
    -18.253  0.1829E+02  0.6675E+02
    -18.239  0.1836E+02  0.6701E+02
    -18.225  0.1844E+02  0.6726E+02
    -18.211  0.1852E+02  0.6752E+02
    -18.197  0.1860E+02  0.6778E+02
    -18.183  0.1868E+02  0.6804E+02
    -18.169  0.1875E+02  0.6831E+02
    -18.155  0.1882E+02  0.6857E+02
    -18.141  0.1887E+02  0.6883E+02
    -18.127  0.1891E+02  0.6910E+02
    -18.113  0.1894E+02  0.6936E+02
    -18.099  0.1895E+02  0.6963E+02
    -18.085  0.1895E+02  0.6989E+02
    -18.071  0.1893E+02  0.7015E+02
    -18.057  0.1889E+02  0.7042E+02
    -18.043  0.1883E+02  0.7068E+02
    -18.029  0.1875E+02  0.7094E+02
    -18.015  0.1866E+02  0.7120E+02
    -18.001  0.1855E+02  0.7146E+02
    -17.987  0.1843E+02  0.7172E+02
    -17.973  0.1829E+02  0.7198E+02
    -17.959  0.1813E+02  0.7223E+02
    -17.945  0.1797E+02  0.7248E+02
    -17.931  0.1779E+02  0.7273E+02
    -17.917  0.1761E+02  0.7298E+02
    -17.903  0.1742E+02  0.7322E+02
    -17.889  0.1723E+02  0.7346E+02
    -17.875  0.1704E+02  0.7370E+02
    -17.861  0.1686E+02  0.7393E+02
    -17.847  0.1667E+02  0.7417E+02
    -17.833  0.1649E+02  0.7440E+02
    -17.819  0.1633E+02  0.7463E+02
    -17.806  0.1617E+02  0.7485E+02
    -17.792  0.1603E+02  0.7508E+02
    -17.778  0.1590E+02  0.7530E+02
    -17.764  0.1579E+02  0.7552E+02
    -17.750  0.1570E+02  0.7574E+02
    -17.736  0.1563E+02  0.7596E+02
    -17.722  0.1558E+02  0.7617E+02
    -17.708  0.1555E+02  0.7639E+02
    -17.694  0.1554E+02  0.7661E+02
    -17.680  0.1556E+02  0.7683E+02
    -17.666  0.1560E+02  0.7704E+02
    -17.652  0.1567E+02  0.7726E+02
    -17.638  0.1575E+02  0.7748E+02
    -17.624  0.1586E+02  0.7770E+02
    -17.610  0.1599E+02  0.7793E+02
    -17.596  0.1614E+02  0.7815E+02
    -17.582  0.1630E+02  0.7838E+02
    -17.568  0.1648E+02  0.7861E+02
    -17.554  0.1668E+02  0.7884E+02
    -17.540  0.1688E+02  0.7908E+02
    -17.526  0.1709E+02  0.7932E+02
    -17.512  0.1731E+02  0.7956E+02
    -17.498  0.1752E+02  0.7981E+02
    -17.484  0.1773E+02  0.8005E+02
    -17.470  0.1794E+02  0.8030E+02
    -17.456  0.1813E+02  0.8056E+02
    -17.442  0.1831E+02  0.8081E+02
    -17.428  0.1847E+02  0.8107E+02
    -17.414  0.1861E+02  0.8133E+02
    -17.400  0.1873E+02  0.8159E+02
    -17.386  0.1882E+02  0.8186E+02
    -17.372  0.1888E+02  0.8212E+02
    -17.358  0.1891E+02  0.8238E+02
    -17.344  0.1891E+02  0.8265E+02
    -17.330  0.1889E+02  0.8291E+02
    -17.316  0.1883E+02  0.8318E+02
    -17.302  0.1875E+02  0.8344E+02
    -17.289  0.1864E+02  0.8370E+02
    -17.275  0.1850E+02  0.8396E+02
    -17.261  0.1835E+02  0.8421E+02
    -17.247  0.1818E+02  0.8447E+02
    -17.233  0.1800E+02  0.8472E+02
    -17.219  0.1780E+02  0.8497E+02
    -17.205  0.1760E+02  0.8521E+02
    -17.191  0.1739E+02  0.8546E+02
    -17.177  0.1719E+02  0.8570E+02
    -17.163  0.1698E+02  0.8593E+02
    -17.149  0.1678E+02  0.8617E+02
    -17.135  0.1658E+02  0.8640E+02
    -17.121  0.1639E+02  0.8663E+02
    -17.107  0.1621E+02  0.8685E+02
    -17.093  0.1603E+02  0.8708E+02
    -17.079  0.1586E+02  0.8730E+02
    -17.065  0.1569E+02  0.8752E+02
    -17.051  0.1553E+02  0.8774E+02
    -17.037  0.1536E+02  0.8795E+02
    -17.023  0.1520E+02  0.8816E+02
    -17.009  0.1504E+02  0.8837E+02
    -16.995  0.1487E+02  0.8858E+02
    -16.981  0.1470E+02  0.8879E+02
    -16.967  0.1453E+02  0.8899E+02
    -16.953  0.1436E+02  0.8919E+02
    -16.939  0.1418E+02  0.8939E+02
    -16.925  0.1399E+02  0.8958E+02
    -16.911  0.1381E+02  0.8978E+02
    -16.897  0.1362E+02  0.8997E+02
    -16.883  0.1344E+02  0.9016E+02
    -16.869  0.1327E+02  0.9034E+02
    -16.855  0.1310E+02  0.9052E+02
    -16.841  0.1295E+02  0.9071E+02
    -16.827  0.1281E+02  0.9088E+02
    -16.813  0.1269E+02  0.9106E+02
    -16.799  0.1260E+02  0.9124E+02
    -16.785  0.1253E+02  0.9141E+02
    -16.772  0.1249E+02  0.9159E+02
    -16.758  0.1248E+02  0.9176E+02
    -16.744  0.1251E+02  0.9194E+02
    -16.730  0.1258E+02  0.9211E+02
    -16.716  0.1268E+02  0.9229E+02
    -16.702  0.1281E+02  0.9247E+02
    -16.688  0.1299E+02  0.9265E+02
    -16.674  0.1319E+02  0.9283E+02
    -16.660  0.1342E+02  0.9302E+02
    -16.646  0.1368E+02  0.9321E+02
    -16.632  0.1396E+02  0.9341E+02
    -16.618  0.1426E+02  0.9361E+02
    -16.604  0.1457E+02  0.9381E+02
    -16.590  0.1489E+02  0.9402E+02
    -16.576  0.1522E+02  0.9423E+02
    -16.562  0.1554E+02  0.9445E+02
    -16.548  0.1587E+02  0.9467E+02
    -16.534  0.1619E+02  0.9490E+02
    -16.520  0.1650E+02  0.9513E+02
    -16.506  0.1681E+02  0.9536E+02
    -16.492  0.1711E+02  0.9560E+02
    -16.478  0.1739E+02  0.9584E+02
    -16.464  0.1767E+02  0.9609E+02
    -16.450  0.1795E+02  0.9634E+02
    -16.436  0.1821E+02  0.9660E+02
    -16.422  0.1846E+02  0.9685E+02
    -16.408  0.1871E+02  0.9712E+02
    -16.394  0.1896E+02  0.9738E+02
    -16.380  0.1919E+02  0.9765E+02
    -16.366  0.1943E+02  0.9792E+02
    -16.352  0.1965E+02  0.9819E+02
    -16.338  0.1987E+02  0.9847E+02
    -16.324  0.2007E+02  0.9875E+02
    -16.310  0.2027E+02  0.9904E+02
    -16.296  0.2045E+02  0.9932E+02
    -16.282  0.2061E+02  0.9961E+02
    -16.268  0.2076E+02  0.9990E+02
    -16.255  0.2088E+02  0.1002E+03
    -16.241  0.2099E+02  0.1005E+03
    -16.227  0.2106E+02  0.1008E+03
    -16.213  0.2111E+02  0.1011E+03
    -16.199  0.2113E+02  0.1014E+03
    -16.185  0.2112E+02  0.1017E+03
    -16.171  0.2108E+02  0.1020E+03
    -16.157  0.2100E+02  0.1023E+03
    -16.143  0.2089E+02  0.1025E+03
    -16.129  0.2076E+02  0.1028E+03
    -16.115  0.2059E+02  0.1031E+03
    -16.101  0.2039E+02  0.1034E+03
    -16.087  0.2017E+02  0.1037E+03
    -16.073  0.1993E+02  0.1040E+03
    -16.059  0.1967E+02  0.1042E+03
    -16.045  0.1939E+02  0.1045E+03
    -16.031  0.1910E+02  0.1048E+03
    -16.017  0.1880E+02  0.1050E+03
    -16.003  0.1850E+02  0.1053E+03
    -15.989  0.1820E+02  0.1056E+03
    -15.975  0.1790E+02  0.1058E+03
    -15.961  0.1762E+02  0.1061E+03
    -15.947  0.1734E+02  0.1063E+03
    -15.933  0.1708E+02  0.1065E+03
    -15.919  0.1684E+02  0.1068E+03
    -15.905  0.1662E+02  0.1070E+03
    -15.891  0.1641E+02  0.1072E+03
    -15.877  0.1624E+02  0.1075E+03
    -15.863  0.1609E+02  0.1077E+03
    -15.849  0.1596E+02  0.1079E+03
    -15.835  0.1585E+02  0.1081E+03
    -15.821  0.1577E+02  0.1083E+03
    -15.807  0.1572E+02  0.1086E+03
    -15.793  0.1568E+02  0.1088E+03
    -15.779  0.1566E+02  0.1090E+03
    -15.765  0.1567E+02  0.1092E+03
    -15.751  0.1568E+02  0.1094E+03
    -15.737  0.1572E+02  0.1097E+03
    -15.724  0.1577E+02  0.1099E+03
    -15.710  0.1583E+02  0.1101E+03
    -15.696  0.1591E+02  0.1103E+03
    -15.682  0.1600E+02  0.1105E+03
    -15.668  0.1609E+02  0.1108E+03
    -15.654  0.1620E+02  0.1110E+03
    -15.640  0.1632E+02  0.1112E+03
    -15.626  0.1644E+02  0.1115E+03
    -15.612  0.1658E+02  0.1117E+03
    -15.598  0.1671E+02  0.1119E+03
    -15.584  0.1685E+02  0.1122E+03
    -15.570  0.1700E+02  0.1124E+03
    -15.556  0.1714E+02  0.1126E+03
    -15.542  0.1727E+02  0.1129E+03
    -15.528  0.1741E+02  0.1131E+03
    -15.514  0.1753E+02  0.1134E+03
    -15.500  0.1764E+02  0.1136E+03
    -15.486  0.1774E+02  0.1139E+03
    -15.472  0.1782E+02  0.1141E+03
    -15.458  0.1788E+02  0.1144E+03
    -15.444  0.1792E+02  0.1146E+03
    -15.430  0.1793E+02  0.1149E+03
    -15.416  0.1793E+02  0.1151E+03
    -15.402  0.1791E+02  0.1154E+03
    -15.388  0.1786E+02  0.1156E+03
    -15.374  0.1780E+02  0.1159E+03
    -15.360  0.1772E+02  0.1161E+03
    -15.346  0.1763E+02  0.1164E+03
    -15.332  0.1753E+02  0.1166E+03
    -15.318  0.1742E+02  0.1168E+03
    -15.304  0.1730E+02  0.1171E+03
    -15.290  0.1719E+02  0.1173E+03
    -15.276  0.1707E+02  0.1176E+03
    -15.262  0.1696E+02  0.1178E+03
    -15.248  0.1686E+02  0.1180E+03
    -15.234  0.1676E+02  0.1183E+03
    -15.220  0.1668E+02  0.1185E+03
    -15.207  0.1660E+02  0.1187E+03
    -15.193  0.1654E+02  0.1190E+03
    -15.179  0.1649E+02  0.1192E+03
    -15.165  0.1644E+02  0.1194E+03
    -15.151  0.1641E+02  0.1197E+03
    -15.137  0.1638E+02  0.1199E+03
    -15.123  0.1635E+02  0.1201E+03
    -15.109  0.1633E+02  0.1203E+03
    -15.095  0.1632E+02  0.1206E+03
    -15.081  0.1630E+02  0.1208E+03
    -15.067  0.1629E+02  0.1210E+03
    -15.053  0.1627E+02  0.1213E+03
    -15.039  0.1625E+02  0.1215E+03
    -15.025  0.1623E+02  0.1217E+03
    -15.011  0.1621E+02  0.1219E+03
    -14.997  0.1619E+02  0.1222E+03
    -14.983  0.1616E+02  0.1224E+03
    -14.969  0.1614E+02  0.1226E+03
    -14.955  0.1612E+02  0.1228E+03
    -14.941  0.1610E+02  0.1231E+03
    -14.927  0.1608E+02  0.1233E+03
    -14.913  0.1607E+02  0.1235E+03
    -14.899  0.1605E+02  0.1237E+03
    -14.885  0.1603E+02  0.1240E+03
    -14.871  0.1602E+02  0.1242E+03
    -14.857  0.1600E+02  0.1244E+03
    -14.843  0.1597E+02  0.1246E+03
    -14.829  0.1594E+02  0.1248E+03
    -14.815  0.1591E+02  0.1251E+03
    -14.801  0.1587E+02  0.1253E+03
    -14.787  0.1582E+02  0.1255E+03
    -14.773  0.1576E+02  0.1257E+03
    -14.759  0.1570E+02  0.1260E+03
    -14.745  0.1563E+02  0.1262E+03
    -14.731  0.1556E+02  0.1264E+03
    -14.717  0.1549E+02  0.1266E+03
    -14.703  0.1542E+02  0.1268E+03
    -14.690  0.1535E+02  0.1270E+03
    -14.676  0.1529E+02  0.1272E+03
    -14.662  0.1524E+02  0.1275E+03
    -14.648  0.1520E+02  0.1277E+03
    -14.634  0.1517E+02  0.1279E+03
    -14.620  0.1515E+02  0.1281E+03
    -14.606  0.1515E+02  0.1283E+03
    -14.592  0.1516E+02  0.1285E+03
    -14.578  0.1519E+02  0.1287E+03
    -14.564  0.1523E+02  0.1289E+03
    -14.550  0.1529E+02  0.1292E+03
    -14.536  0.1537E+02  0.1294E+03
    -14.522  0.1546E+02  0.1296E+03
    -14.508  0.1557E+02  0.1298E+03
    -14.494  0.1570E+02  0.1300E+03
    -14.480  0.1584E+02  0.1302E+03
    -14.466  0.1600E+02  0.1305E+03
    -14.452  0.1618E+02  0.1307E+03
    -14.438  0.1638E+02  0.1309E+03
    -14.424  0.1659E+02  0.1312E+03
    -14.410  0.1683E+02  0.1314E+03
    -14.396  0.1709E+02  0.1316E+03
    -14.382  0.1736E+02  0.1319E+03
    -14.368  0.1765E+02  0.1321E+03
    -14.354  0.1795E+02  0.1324E+03
    -14.340  0.1827E+02  0.1326E+03
    -14.326  0.1860E+02  0.1329E+03
    -14.312  0.1894E+02  0.1332E+03
    -14.298  0.1929E+02  0.1334E+03
    -14.284  0.1964E+02  0.1337E+03
    -14.270  0.2000E+02  0.1340E+03
    -14.256  0.2036E+02  0.1343E+03
    -14.242  0.2071E+02  0.1346E+03
    -14.228  0.2106E+02  0.1348E+03
    -14.214  0.2141E+02  0.1351E+03
    -14.200  0.2175E+02  0.1354E+03
    -14.186  0.2208E+02  0.1358E+03
    -14.173  0.2239E+02  0.1361E+03
    -14.159  0.2269E+02  0.1364E+03
    -14.145  0.2298E+02  0.1367E+03
    -14.131  0.2324E+02  0.1370E+03
    -14.117  0.2348E+02  0.1374E+03
    -14.103  0.2370E+02  0.1377E+03
    -14.089  0.2388E+02  0.1380E+03
    -14.075  0.2404E+02  0.1384E+03
    -14.061  0.2416E+02  0.1387E+03
    -14.047  0.2424E+02  0.1390E+03
    -14.033  0.2429E+02  0.1394E+03
    -14.019  0.2430E+02  0.1397E+03
    -14.005  0.2427E+02  0.1401E+03
    -13.991  0.2421E+02  0.1404E+03
    -13.977  0.2412E+02  0.1407E+03
    -13.963  0.2400E+02  0.1411E+03
    -13.949  0.2385E+02  0.1414E+03
    -13.935  0.2369E+02  0.1417E+03
    -13.921  0.2351E+02  0.1421E+03
    -13.907  0.2332E+02  0.1424E+03
    -13.893  0.2313E+02  0.1427E+03
    -13.879  0.2295E+02  0.1430E+03
    -13.865  0.2277E+02  0.1433E+03
    -13.851  0.2261E+02  0.1437E+03
    -13.837  0.2246E+02  0.1440E+03
    -13.823  0.2232E+02  0.1443E+03
    -13.809  0.2221E+02  0.1446E+03
    -13.795  0.2211E+02  0.1449E+03
    -13.781  0.2203E+02  0.1452E+03
    -13.767  0.2196E+02  0.1455E+03
    -13.753  0.2190E+02  0.1458E+03
    -13.739  0.2184E+02  0.1461E+03
    -13.725  0.2180E+02  0.1464E+03
    -13.711  0.2175E+02  0.1467E+03
    -13.697  0.2170E+02  0.1470E+03
    -13.683  0.2164E+02  0.1473E+03
    -13.669  0.2158E+02  0.1476E+03
    -13.655  0.2151E+02  0.1480E+03
    -13.642  0.2143E+02  0.1482E+03
    -13.628  0.2134E+02  0.1485E+03
    -13.614  0.2124E+02  0.1488E+03
    -13.600  0.2113E+02  0.1491E+03
    -13.586  0.2101E+02  0.1494E+03
    -13.572  0.2088E+02  0.1497E+03
    -13.558  0.2075E+02  0.1500E+03
    -13.544  0.2062E+02  0.1503E+03
    -13.530  0.2048E+02  0.1506E+03
    -13.516  0.2034E+02  0.1509E+03
    -13.502  0.2019E+02  0.1512E+03
    -13.488  0.2005E+02  0.1514E+03
    -13.474  0.1992E+02  0.1517E+03
    -13.460  0.1978E+02  0.1520E+03
    -13.446  0.1965E+02  0.1523E+03
    -13.432  0.1953E+02  0.1525E+03
    -13.418  0.1942E+02  0.1528E+03
    -13.404  0.1931E+02  0.1531E+03
    -13.390  0.1922E+02  0.1533E+03
    -13.376  0.1914E+02  0.1536E+03
    -13.362  0.1907E+02  0.1539E+03
    -13.348  0.1902E+02  0.1541E+03
    -13.334  0.1899E+02  0.1544E+03
    -13.320  0.1897E+02  0.1547E+03
    -13.306  0.1898E+02  0.1549E+03
    -13.292  0.1901E+02  0.1552E+03
    -13.278  0.1905E+02  0.1555E+03