 134 134   0   0
  0.2736666E+02  0.2130000E-08  0.1721659E-08  0.1000000E-08  0.5000000E-15
  1.000000000000000E-004
  CAR 
 unknown system                          
      5.58489229    -24.52459938 2000     -1.48808188      1.00000000
    -24.525  0.0000E+00  0.0000E+00
    -24.510  0.0000E+00  0.0000E+00
    -24.494  0.0000E+00  0.0000E+00
    -24.479  0.0000E+00  0.0000E+00
    -24.464  0.0000E+00  0.0000E+00
    -24.449  0.0000E+00  0.0000E+00
    -24.434  0.0000E+00  0.0000E+00
    -24.419  0.0000E+00  0.0000E+00
    -24.404  0.0000E+00  0.0000E+00
    -24.389  0.0000E+00  0.0000E+00
    -24.374  0.0000E+00  0.0000E+00
    -24.359  0.0000E+00  0.0000E+00
    -24.344  0.0000E+00  0.0000E+00
    -24.329  0.0000E+00  0.0000E+00
    -24.314  0.0000E+00  0.0000E+00
    -24.299  0.0000E+00  0.0000E+00
    -24.284  0.0000E+00  0.0000E+00
    -24.269  0.0000E+00  0.0000E+00
    -24.253  0.0000E+00  0.0000E+00
    -24.238  0.0000E+00  0.0000E+00
    -24.223  0.0000E+00  0.0000E+00
    -24.208  0.0000E+00  0.0000E+00
    -24.193  0.0000E+00  0.0000E+00
    -24.178  0.0000E+00  0.0000E+00
    -24.163  0.0000E+00  0.0000E+00
    -24.148  0.0000E+00  0.0000E+00
    -24.133  0.0000E+00  0.0000E+00
    -24.118  0.0000E+00  0.0000E+00
    -24.103  0.0000E+00  0.0000E+00
    -24.088  0.0000E+00  0.0000E+00
    -24.073  0.0000E+00  0.0000E+00
    -24.058  0.0000E+00  0.0000E+00
    -24.043  0.0000E+00  0.0000E+00
    -24.028  0.0000E+00  0.0000E+00
    -24.012  0.0000E+00  0.0000E+00
    -23.997  0.0000E+00  0.0000E+00
    -23.982  0.0000E+00  0.0000E+00
    -23.967  0.0000E+00  0.0000E+00
    -23.952  0.0000E+00  0.0000E+00
    -23.937  0.0000E+00  0.0000E+00
    -23.922  0.0000E+00  0.0000E+00
    -23.907  0.0000E+00  0.0000E+00
    -23.892  0.0000E+00  0.0000E+00
    -23.877  0.0000E+00  0.0000E+00
    -23.862  0.0000E+00  0.0000E+00
    -23.847  0.0000E+00  0.0000E+00
    -23.832  0.0000E+00  0.0000E+00
    -23.817  0.0000E+00  0.0000E+00
    -23.802  0.0000E+00  0.0000E+00
    -23.787  0.0000E+00  0.0000E+00
    -23.771  0.0000E+00  0.0000E+00
    -23.756  0.0000E+00  0.0000E+00
    -23.741  0.0000E+00  0.0000E+00
    -23.726  0.0000E+00  0.0000E+00
    -23.711  0.0000E+00  0.0000E+00
    -23.696  0.7371E-14  0.1110E-15
    -23.681  0.1474E-13  0.3331E-15
    -23.666  0.2211E-13  0.6661E-15
    -23.651  0.6634E-13  0.1665E-14
    -23.636  0.1474E-12  0.3886E-14
    -23.621  0.3464E-12  0.9104E-14
    -23.606  0.7813E-12  0.2087E-13
    -23.591  0.1762E-11  0.4741E-13
    -23.576  0.3939E-11  0.1067E-12
    -23.561  0.8683E-11  0.2375E-12
    -23.546  0.1893E-10  0.5227E-12
    -23.530  0.4081E-10  0.1137E-11
    -23.515  0.8700E-10  0.2448E-11
    -23.500  0.1833E-09  0.5209E-11
    -23.485  0.3821E-09  0.1096E-10
    -23.470  0.7871E-09  0.2282E-10
    -23.455  0.1603E-08  0.4697E-10
    -23.440  0.3230E-08  0.9562E-10
    -23.425  0.6431E-08  0.1925E-09
    -23.410  0.1266E-07  0.3832E-09
    -23.395  0.2465E-07  0.7545E-09
    -23.380  0.4745E-07  0.1469E-08
    -23.365  0.9031E-07  0.2830E-08
    -23.350  0.1699E-06  0.5389E-08
    -23.335  0.3162E-06  0.1015E-07
    -23.320  0.5816E-06  0.1891E-07
    -23.305  0.1058E-05  0.3484E-07
    -23.289  0.1902E-05  0.6350E-07
    -23.274  0.3382E-05  0.1144E-06
    -23.259  0.5946E-05  0.2040E-06
    -23.244  0.1034E-04  0.3597E-06
    -23.229  0.1776E-04  0.6272E-06
    -23.214  0.3018E-04  0.1082E-05
    -23.199  0.5071E-04  0.1846E-05
    -23.184  0.8424E-04  0.3115E-05
    -23.169  0.1384E-03  0.5199E-05
    -23.154  0.2247E-03  0.8583E-05
    -23.139  0.3608E-03  0.1402E-04
    -23.124  0.5727E-03  0.2264E-04
    -23.109  0.8990E-03  0.3618E-04
    -23.094  0.1395E-02  0.5720E-04
    -23.079  0.2141E-02  0.8945E-04
    -23.064  0.3248E-02  0.1384E-03
    -23.048  0.4872E-02  0.2118E-03
    -23.033  0.7227E-02  0.3206E-03
    -23.018  0.1060E-01  0.4802E-03
    -23.003  0.1537E-01  0.7117E-03
    -22.988  0.2203E-01  0.1043E-02
    -22.973  0.3122E-01  0.1514E-02
    -22.958  0.4376E-01  0.2173E-02
    -22.943  0.6064E-01  0.3086E-02
    -22.928  0.8308E-01  0.4338E-02
    -22.913  0.1125E+00  0.6033E-02
    -22.898  0.1507E+00  0.8303E-02
    -22.883  0.1996E+00  0.1131E-01
    -22.868  0.2614E+00  0.1525E-01
    -22.853  0.3383E+00  0.2034E-01
    -22.838  0.4331E+00  0.2687E-01
    -22.823  0.5481E+00  0.3512E-01
    -22.807  0.6858E+00  0.4545E-01
    -22.792  0.8485E+00  0.5823E-01
    -22.777  0.1038E+01  0.7387E-01
    -22.762  0.1255E+01  0.9278E-01
    -22.747  0.1501E+01  0.1154E+00
    -22.732  0.1775E+01  0.1421E+00
    -22.717  0.2075E+01  0.1734E+00
    -22.702  0.2399E+01  0.2095E+00
    -22.687  0.2741E+01  0.2508E+00
    -22.672  0.3098E+01  0.2975E+00
    -22.657  0.3461E+01  0.3496E+00
    -22.642  0.3823E+01  0.4072E+00
    -22.627  0.4176E+01  0.4701E+00
    -22.612  0.4509E+01  0.5380E+00
    -22.597  0.4815E+01  0.6105E+00
    -22.582  0.5083E+01  0.6871E+00
    -22.567  0.5306E+01  0.7670E+00
    -22.551  0.5477E+01  0.8495E+00
    -22.536  0.5590E+01  0.9337E+00
    -22.521  0.5641E+01  0.1019E+01
    -22.506  0.5629E+01  0.1103E+01
    -22.491  0.5555E+01  0.1187E+01
    -22.476  0.5421E+01  0.1269E+01
    -22.461  0.5233E+01  0.1348E+01
    -22.446  0.4998E+01  0.1423E+01
    -22.431  0.4724E+01  0.1494E+01
    -22.416  0.4420E+01  0.1561E+01
    -22.401  0.4097E+01  0.1622E+01
    -22.386  0.3765E+01  0.1679E+01
    -22.371  0.3436E+01  0.1731E+01
    -22.356  0.3119E+01  0.1778E+01
    -22.341  0.2824E+01  0.1820E+01
    -22.326  0.2559E+01  0.1859E+01
    -22.310  0.2333E+01  0.1894E+01
    -22.295  0.2150E+01  0.1926E+01
    -22.280  0.2016E+01  0.1957E+01
    -22.265  0.1935E+01  0.1986E+01
    -22.250  0.1908E+01  0.2015E+01
    -22.235  0.1936E+01  0.2044E+01
    -22.220  0.2018E+01  0.2074E+01
    -22.205  0.2153E+01  0.2107E+01
    -22.190  0.2336E+01  0.2142E+01
    -22.175  0.2564E+01  0.2180E+01
    -22.160  0.2829E+01  0.2223E+01
    -22.145  0.3124E+01  0.2270E+01
    -22.130  0.3442E+01  0.2322E+01
    -22.115  0.3771E+01  0.2379E+01
    -22.100  0.4103E+01  0.2441E+01
    -22.085  0.4425E+01  0.2507E+01
    -22.069  0.4729E+01  0.2578E+01
    -22.054  0.5003E+01  0.2654E+01
    -22.039  0.5237E+01  0.2733E+01
    -22.024  0.5424E+01  0.2814E+01
    -22.009  0.5557E+01  0.2898E+01
    -21.994  0.5630E+01  0.2983E+01
    -21.979  0.5640E+01  0.3068E+01
    -21.964  0.5588E+01  0.3152E+01
    -21.949  0.5475E+01  0.3234E+01
    -21.934  0.5303E+01  0.3314E+01
    -21.919  0.5079E+01  0.3391E+01
    -21.904  0.4810E+01  0.3463E+01
    -21.889  0.4504E+01  0.3531E+01
    -21.874  0.4170E+01  0.3594E+01
    -21.859  0.3817E+01  0.3651E+01
    -21.844  0.3455E+01  0.3703E+01
    -21.828  0.3092E+01  0.3750E+01
    -21.813  0.2737E+01  0.3791E+01
    -21.798  0.2395E+01  0.3827E+01
    -21.783  0.2073E+01  0.3859E+01
    -21.768  0.1776E+01  0.3885E+01
    -21.753  0.1505E+01  0.3908E+01
    -21.738  0.1264E+01  0.3927E+01
    -21.723  0.1052E+01  0.3943E+01
    -21.708  0.8714E+00  0.3956E+01
    -21.693  0.7205E+00  0.3967E+01
    -21.678  0.5988E+00  0.3976E+01
    -21.663  0.5057E+00  0.3983E+01
    -21.648  0.4403E+00  0.3990E+01
    -21.633  0.4025E+00  0.3996E+01
    -21.618  0.3924E+00  0.4002E+01
    -21.603  0.4108E+00  0.4008E+01
    -21.587  0.4593E+00  0.4015E+01
    -21.572  0.5404E+00  0.4023E+01
    -21.557  0.6571E+00  0.4033E+01
    -21.542  0.8134E+00  0.4045E+01
    -21.527  0.1014E+01  0.4061E+01
    -21.512  0.1263E+01  0.4080E+01
    -21.497  0.1567E+01  0.4103E+01
    -21.482  0.1930E+01  0.4132E+01
    -21.467  0.2357E+01  0.4168E+01
    -21.452  0.2853E+01  0.4211E+01
    -21.437  0.3419E+01  0.4262E+01
    -21.422  0.4057E+01  0.4323E+01
    -21.407  0.4767E+01  0.4395E+01
    -21.392  0.5547E+01  0.4479E+01
    -21.377  0.6390E+01  0.4575E+01
    -21.362  0.7290E+01  0.4685E+01
    -21.346  0.8237E+01  0.4809E+01
    -21.331  0.9219E+01  0.4948E+01
    -21.316  0.1022E+02  0.5102E+01
    -21.301  0.1123E+02  0.5271E+01
    -21.286  0.1222E+02  0.5455E+01
    -21.271  0.1318E+02  0.5653E+01
    -21.256  0.1409E+02  0.5866E+01
    -21.241  0.1494E+02  0.6091E+01
    -21.226  0.1571E+02  0.6327E+01
    -21.211  0.1639E+02  0.6574E+01
    -21.196  0.1696E+02  0.6830E+01
    -21.181  0.1742E+02  0.7092E+01
    -21.166  0.1776E+02  0.7360E+01
    -21.151  0.1799E+02  0.7631E+01
    -21.136  0.1811E+02  0.7903E+01
    -21.121  0.1811E+02  0.8176E+01
    -21.105  0.1802E+02  0.8448E+01
    -21.090  0.1783E+02  0.8716E+01
    -21.075  0.1757E+02  0.8981E+01
    -21.060  0.1724E+02  0.9241E+01
    -21.045  0.1686E+02  0.9495E+01
    -21.030  0.1644E+02  0.9742E+01
    -21.015  0.1601E+02  0.9983E+01
    -21.000  0.1556E+02  0.1022E+02
    -20.985  0.1512E+02  0.1045E+02
    -20.970  0.1470E+02  0.1067E+02
    -20.955  0.1430E+02  0.1088E+02
    -20.940  0.1395E+02  0.1109E+02
    -20.925  0.1364E+02  0.1130E+02
    -20.910  0.1338E+02  0.1150E+02
    -20.895  0.1318E+02  0.1170E+02
    -20.880  0.1304E+02  0.1189E+02
    -20.864  0.1296E+02  0.1209E+02
    -20.849  0.1294E+02  0.1228E+02
    -20.834  0.1298E+02  0.1248E+02
    -20.819  0.1308E+02  0.1268E+02
    -20.804  0.1323E+02  0.1288E+02
    -20.789  0.1342E+02  0.1308E+02
    -20.774  0.1366E+02  0.1328E+02
    -20.759  0.1393E+02  0.1349E+02
    -20.744  0.1422E+02  0.1371E+02
    -20.729  0.1453E+02  0.1393E+02
    -20.714  0.1484E+02  0.1415E+02
    -20.699  0.1515E+02  0.1438E+02
    -20.684  0.1545E+02  0.1461E+02
    -20.669  0.1574E+02  0.1485E+02
    -20.654  0.1600E+02  0.1509E+02
    -20.639  0.1623E+02  0.1533E+02
    -20.623  0.1643E+02  0.1558E+02
    -20.608  0.1659E+02  0.1583E+02
    -20.593  0.1671E+02  0.1608E+02
    -20.578  0.1680E+02  0.1634E+02
    -20.563  0.1687E+02  0.1659E+02
    -20.548  0.1690E+02  0.1684E+02
    -20.533  0.1691E+02  0.1710E+02
    -20.518  0.1692E+02  0.1735E+02
    -20.503  0.1692E+02  0.1761E+02
    -20.488  0.1692E+02  0.1786E+02
    -20.473  0.1693E+02  0.1812E+02
    -20.458  0.1696E+02  0.1837E+02
    -20.443  0.1702E+02  0.1863E+02
    -20.428  0.1711E+02  0.1889E+02
    -20.413  0.1723E+02  0.1915E+02
    -20.398  0.1739E+02  0.1941E+02
    -20.382  0.1758E+02  0.1967E+02
    -20.367  0.1781E+02  0.1994E+02
    -20.352  0.1806E+02  0.2021E+02
    -20.337  0.1834E+02  0.2049E+02
    -20.322  0.1864E+02  0.2077E+02
    -20.307  0.1896E+02  0.2106E+02
    -20.292  0.1928E+02  0.2135E+02
    -20.277  0.1959E+02  0.2164E+02
    -20.262  0.1990E+02  0.2194E+02
    -20.247  0.2019E+02  0.2225E+02
    -20.232  0.2046E+02  0.2255E+02
    -20.217  0.2071E+02  0.2287E+02
    -20.202  0.2092E+02  0.2318E+02
    -20.187  0.2110E+02  0.2350E+02
    -20.172  0.2125E+02  0.2382E+02
    -20.157  0.2135E+02  0.2414E+02
    -20.141  0.2143E+02  0.2446E+02
    -20.126  0.2146E+02  0.2479E+02
    -20.111  0.2147E+02  0.2511E+02
    -20.096  0.2144E+02  0.2543E+02
    -20.081  0.2139E+02  0.2576E+02
    -20.066  0.2131E+02  0.2608E+02
    -20.051  0.2122E+02  0.2640E+02
    -20.036  0.2110E+02  0.2671E+02
    -20.021  0.2098E+02  0.2703E+02
    -20.006  0.2085E+02  0.2734E+02
    -19.991  0.2071E+02  0.2766E+02
    -19.976  0.2056E+02  0.2797E+02
    -19.961  0.2040E+02  0.2827E+02
    -19.946  0.2024E+02  0.2858E+02
    -19.931  0.2007E+02  0.2888E+02
    -19.916  0.1990E+02  0.2918E+02
    -19.900  0.1971E+02  0.2948E+02
    -19.885  0.1951E+02  0.2977E+02
    -19.870  0.1929E+02  0.3006E+02
    -19.855  0.1906E+02  0.3035E+02
    -19.840  0.1881E+02  0.3063E+02
    -19.825  0.1854E+02  0.3091E+02
    -19.810  0.1825E+02  0.3119E+02
    -19.795  0.1795E+02  0.3146E+02
    -19.780  0.1764E+02  0.3172E+02
    -19.765  0.1732E+02  0.3198E+02
    -19.750  0.1700E+02  0.3224E+02
    -19.735  0.1668E+02  0.3249E+02
    -19.720  0.1638E+02  0.3274E+02
    -19.705  0.1609E+02  0.3298E+02
    -19.690  0.1583E+02  0.3322E+02
    -19.675  0.1560E+02  0.3345E+02
    -19.659  0.1540E+02  0.3368E+02
    -19.644  0.1524E+02  0.3391E+02
    -19.629  0.1513E+02  0.3414E+02
    -19.614  0.1505E+02  0.3437E+02
    -19.599  0.1502E+02  0.3459E+02
    -19.584  0.1502E+02  0.3482E+02
    -19.569  0.1505E+02  0.3505E+02
    -19.554  0.1512E+02  0.3528E+02
    -19.539  0.1520E+02  0.3550E+02
    -19.524  0.1531E+02  0.3573E+02
    -19.509  0.1542E+02  0.3597E+02
    -19.494  0.1555E+02  0.3620E+02
    -19.479  0.1568E+02  0.3644E+02
    -19.464  0.1581E+02  0.3668E+02
    -19.449  0.1594E+02  0.3692E+02
    -19.434  0.1606E+02  0.3716E+02
    -19.418  0.1619E+02  0.3740E+02
    -19.403  0.1632E+02  0.3765E+02
    -19.388  0.1646E+02  0.3789E+02
    -19.373  0.1660E+02  0.3814E+02
    -19.358  0.1675E+02  0.3840E+02
    -19.343  0.1691E+02  0.3865E+02
    -19.328  0.1708E+02  0.3891E+02
    -19.313  0.1727E+02  0.3917E+02
    -19.298  0.1748E+02  0.3943E+02
    -19.283  0.1771E+02  0.3970E+02
    -19.268  0.1796E+02  0.3997E+02
    -19.253  0.1822E+02  0.4024E+02
    -19.238  0.1851E+02  0.4052E+02
    -19.223  0.1880E+02  0.4081E+02
    -19.208  0.1911E+02  0.4109E+02
    -19.193  0.1943E+02  0.4139E+02
    -19.177  0.1975E+02  0.4168E+02
    -19.162  0.2008E+02  0.4199E+02
    -19.147  0.2039E+02  0.4229E+02
    -19.132  0.2070E+02  0.4261E+02
    -19.117  0.2098E+02  0.4292E+02
    -19.102  0.2124E+02  0.4324E+02
    -19.087  0.2148E+02  0.4357E+02
    -19.072  0.2168E+02  0.4389E+02
    -19.057  0.2183E+02  0.4422E+02
    -19.042  0.2195E+02  0.4455E+02
    -19.027  0.2202E+02  0.4488E+02
    -19.012  0.2205E+02  0.4521E+02
    -18.997  0.2203E+02  0.4555E+02
    -18.982  0.2197E+02  0.4588E+02
    -18.967  0.2187E+02  0.4621E+02
    -18.952  0.2174E+02  0.4653E+02
    -18.936  0.2159E+02  0.4686E+02
    -18.921  0.2141E+02  0.4718E+02
    -18.906  0.2123E+02  0.4750E+02
    -18.891  0.2104E+02  0.4782E+02
    -18.876  0.2085E+02  0.4813E+02
    -18.861  0.2068E+02  0.4844E+02
    -18.846  0.2051E+02  0.4875E+02
    -18.831  0.2037E+02  0.4906E+02
    -18.816  0.2025E+02  0.4937E+02
    -18.801  0.2016E+02  0.4967E+02
    -18.786  0.2010E+02  0.4997E+02
    -18.771  0.2006E+02  0.5027E+02
    -18.756  0.2005E+02  0.5058E+02
    -18.741  0.2007E+02  0.5088E+02
    -18.726  0.2012E+02  0.5118E+02
    -18.711  0.2018E+02  0.5148E+02
    -18.695  0.2027E+02  0.5179E+02
    -18.680  0.2038E+02  0.5210E+02
    -18.665  0.2050E+02  0.5241E+02
    -18.650  0.2064E+02  0.5272E+02
    -18.635  0.2078E+02  0.5303E+02
    -18.620  0.2093E+02  0.5335E+02
    -18.605  0.2109E+02  0.5366E+02
    -18.590  0.2125E+02  0.5398E+02
    -18.575  0.2141E+02  0.5431E+02
    -18.560  0.2156E+02  0.5463E+02
    -18.545  0.2172E+02  0.5496E+02
    -18.530  0.2186E+02  0.5529E+02
    -18.515  0.2200E+02  0.5562E+02
    -18.500  0.2214E+02  0.5595E+02
    -18.485  0.2226E+02  0.5629E+02
    -18.470  0.2238E+02  0.5662E+02
    -18.455  0.2249E+02  0.5696E+02
    -18.439  0.2259E+02  0.5730E+02
    -18.424  0.2269E+02  0.5764E+02
    -18.409  0.2277E+02  0.5799E+02
    -18.394  0.2284E+02  0.5833E+02
    -18.379  0.2290E+02  0.5868E+02
    -18.364  0.2294E+02  0.5902E+02
    -18.349  0.2297E+02  0.5937E+02
    -18.334  0.2298E+02  0.5971E+02
    -18.319  0.2298E+02  0.6006E+02
    -18.304  0.2295E+02  0.6041E+02
    -18.289  0.2289E+02  0.6075E+02
    -18.274  0.2281E+02  0.6109E+02
    -18.259  0.2271E+02  0.6144E+02
    -18.244  0.2257E+02  0.6178E+02
    -18.229  0.2242E+02  0.6211E+02
    -18.214  0.2223E+02  0.6245E+02
    -18.198  0.2203E+02  0.6278E+02
    -18.183  0.2181E+02  0.6311E+02
    -18.168  0.2157E+02  0.6343E+02
    -18.153  0.2133E+02  0.6376E+02
    -18.138  0.2108E+02  0.6407E+02
    -18.123  0.2084E+02  0.6439E+02
    -18.108  0.2061E+02  0.6470E+02
    -18.093  0.2040E+02  0.6500E+02
    -18.078  0.2021E+02  0.6531E+02
    -18.063  0.2005E+02  0.6561E+02
    -18.048  0.1991E+02  0.6591E+02
    -18.033  0.1982E+02  0.6621E+02
    -18.018  0.1975E+02  0.6651E+02
    -18.003  0.1973E+02  0.6680E+02
    -17.988  0.1973E+02  0.6710E+02
    -17.973  0.1977E+02  0.6740E+02
    -17.957  0.1985E+02  0.6770E+02
    -17.942  0.1995E+02  0.6800E+02
    -17.927  0.2007E+02  0.6830E+02
    -17.912  0.2021E+02  0.6861E+02
    -17.897  0.2037E+02  0.6891E+02
    -17.882  0.2055E+02  0.6922E+02
    -17.867  0.2073E+02  0.6953E+02
    -17.852  0.2091E+02  0.6985E+02
    -17.837  0.2108E+02  0.7017E+02
    -17.822  0.2125E+02  0.7049E+02
    -17.807  0.2141E+02  0.7081E+02
    -17.792  0.2155E+02  0.7113E+02
    -17.777  0.2166E+02  0.7146E+02
    -17.762  0.2175E+02  0.7179E+02
    -17.747  0.2180E+02  0.7212E+02
    -17.732  0.2183E+02  0.7244E+02
    -17.716  0.2181E+02  0.7277E+02
    -17.701  0.2177E+02  0.7310E+02
    -17.686  0.2168E+02  0.7343E+02
    -17.671  0.2156E+02  0.7375E+02
    -17.656  0.2141E+02  0.7407E+02
    -17.641  0.2124E+02  0.7439E+02
    -17.626  0.2104E+02  0.7471E+02
    -17.611  0.2082E+02  0.7503E+02
    -17.596  0.2060E+02  0.7534E+02
    -17.581  0.2037E+02  0.7564E+02
    -17.566  0.2014E+02  0.7595E+02
    -17.551  0.1992E+02  0.7625E+02
    -17.536  0.1971E+02  0.7654E+02
    -17.521  0.1952E+02  0.7684E+02
    -17.506  0.1935E+02  0.7713E+02
    -17.491  0.1922E+02  0.7742E+02
    -17.475  0.1911E+02  0.7771E+02
    -17.460  0.1903E+02  0.7799E+02
    -17.445  0.1899E+02  0.7828E+02
    -17.430  0.1898E+02  0.7856E+02
    -17.415  0.1900E+02  0.7885E+02
    -17.400  0.1906E+02  0.7914E+02
    -17.385  0.1914E+02  0.7943E+02
    -17.370  0.1925E+02  0.7972E+02
    -17.355  0.1939E+02  0.8001E+02
    -17.340  0.1955E+02  0.8030E+02
    -17.325  0.1973E+02  0.8060E+02
    -17.310  0.1993E+02  0.8090E+02
    -17.295  0.2014E+02  0.8120E+02
    -17.280  0.2035E+02  0.8151E+02
    -17.265  0.2057E+02  0.8182E+02
    -17.250  0.2079E+02  0.8213E+02
    -17.234  0.2100E+02  0.8245E+02
    -17.219  0.2120E+02  0.8277E+02
    -17.204  0.2139E+02  0.8309E+02
    -17.189  0.2156E+02  0.8341E+02
    -17.174  0.2172E+02  0.8374E+02
    -17.159  0.2184E+02  0.8407E+02
    -17.144  0.2195E+02  0.8440E+02
    -17.129  0.2202E+02  0.8473E+02
    -17.114  0.2207E+02  0.8507E+02
    -17.099  0.2209E+02  0.8540E+02
    -17.084  0.2208E+02  0.8573E+02
    -17.069  0.2205E+02  0.8606E+02
    -17.054  0.2199E+02  0.8639E+02
    -17.039  0.2192E+02  0.8672E+02
    -17.024  0.2182E+02  0.8705E+02
    -17.009  0.2172E+02  0.8738E+02
    -16.993  0.2161E+02  0.8771E+02
    -16.978  0.2149E+02  0.8803E+02
    -16.963  0.2138E+02  0.8835E+02
    -16.948  0.2126E+02  0.8867E+02
    -16.933  0.2116E+02  0.8899E+02
    -16.918  0.2107E+02  0.8931E+02
    -16.903  0.2099E+02  0.8962E+02
    -16.888  0.2092E+02  0.8994E+02
    -16.873  0.2087E+02  0.9025E+02
    -16.858  0.2084E+02  0.9057E+02
    -16.843  0.2083E+02  0.9088E+02
    -16.828  0.2084E+02  0.9119E+02
    -16.813  0.2086E+02  0.9151E+02
    -16.798  0.2090E+02  0.9182E+02
    -16.783  0.2096E+02  0.9214E+02
    -16.768  0.2103E+02  0.9246E+02
    -16.752  0.2111E+02  0.9277E+02
    -16.737  0.2120E+02  0.9309E+02
    -16.722  0.2130E+02  0.9341E+02
    -16.707  0.2140E+02  0.9374E+02
    -16.692  0.2150E+02  0.9406E+02
    -16.677  0.2159E+02  0.9439E+02
    -16.662  0.2169E+02  0.9471E+02
    -16.647  0.2177E+02  0.9504E+02
    -16.632  0.2185E+02  0.9537E+02
    -16.617  0.2191E+02  0.9570E+02
    -16.602  0.2196E+02  0.9603E+02
    -16.587  0.2200E+02  0.9636E+02
    -16.572  0.2203E+02  0.9669E+02
    -16.557  0.2204E+02  0.9703E+02
    -16.542  0.2204E+02  0.9736E+02
    -16.527  0.2203E+02  0.9769E+02
    -16.511  0.2201E+02  0.9802E+02
    -16.496  0.2197E+02  0.9835E+02
    -16.481  0.2193E+02  0.9868E+02
    -16.466  0.2188E+02  0.9901E+02
    -16.451  0.2183E+02  0.9934E+02
    -16.436  0.2176E+02  0.9967E+02
    -16.421  0.2169E+02  0.9999E+02
    -16.406  0.2162E+02  0.1003E+03
    -16.391  0.2154E+02  0.1006E+03
    -16.376  0.2146E+02  0.1010E+03
    -16.361  0.2137E+02  0.1013E+03
    -16.346  0.2127E+02  0.1016E+03
    -16.331  0.2117E+02  0.1019E+03
    -16.316  0.2106E+02  0.1022E+03
    -16.301  0.2095E+02  0.1026E+03
    -16.286  0.2083E+02  0.1029E+03
    -16.270  0.2071E+02  0.1032E+03
    -16.255  0.2058E+02  0.1035E+03
    -16.240  0.2045E+02  0.1038E+03
    -16.225  0.2033E+02  0.1041E+03
    -16.210  0.2020E+02  0.1044E+03
    -16.195  0.2008E+02  0.1047E+03
    -16.180  0.1996E+02  0.1050E+03
    -16.165  0.1985E+02  0.1053E+03
    -16.150  0.1976E+02  0.1056E+03
    -16.135  0.1967E+02  0.1059E+03
    -16.120  0.1959E+02  0.1062E+03
    -16.105  0.1953E+02  0.1065E+03
    -16.090  0.1947E+02  0.1068E+03
    -16.075  0.1943E+02  0.1071E+03
    -16.060  0.1940E+02  0.1074E+03
    -16.045  0.1938E+02  0.1077E+03
    -16.029  0.1936E+02  0.1080E+03
    -16.014  0.1935E+02  0.1083E+03
    -15.999  0.1934E+02  0.1085E+03
    -15.984  0.1933E+02  0.1088E+03
    -15.969  0.1932E+02  0.1091E+03
    -15.954  0.1931E+02  0.1094E+03
    -15.939  0.1929E+02  0.1097E+03
    -15.924  0.1926E+02  0.1100E+03
    -15.909  0.1922E+02  0.1103E+03
    -15.894  0.1918E+02  0.1106E+03
    -15.879  0.1912E+02  0.1109E+03
    -15.864  0.1905E+02  0.1112E+03
    -15.849  0.1897E+02  0.1114E+03
    -15.834  0.1889E+02  0.1117E+03
    -15.819  0.1880E+02  0.1120E+03
    -15.804  0.1870E+02  0.1123E+03
    -15.788  0.1861E+02  0.1126E+03
    -15.773  0.1852E+02  0.1128E+03
    -15.758  0.1843E+02  0.1131E+03
    -15.743  0.1836E+02  0.1134E+03
    -15.728  0.1830E+02  0.1137E+03
    -15.713  0.1826E+02  0.1140E+03
    -15.698  0.1824E+02  0.1142E+03
    -15.683  0.1825E+02  0.1145E+03
    -15.668  0.1827E+02  0.1148E+03
    -15.653  0.1832E+02  0.1151E+03
    -15.638  0.1840E+02  0.1153E+03
    -15.623  0.1849E+02  0.1156E+03
    -15.608  0.1860E+02  0.1159E+03
    -15.593  0.1873E+02  0.1162E+03
    -15.578  0.1887E+02  0.1165E+03
    -15.563  0.1902E+02  0.1167E+03
    -15.547  0.1917E+02  0.1170E+03
    -15.532  0.1932E+02  0.1173E+03
    -15.517  0.1948E+02  0.1176E+03
    -15.502  0.1963E+02  0.1179E+03
    -15.487  0.1977E+02  0.1182E+03
    -15.472  0.1991E+02  0.1185E+03
    -15.457  0.2003E+02  0.1188E+03
    -15.442  0.2015E+02  0.1191E+03
    -15.427  0.2027E+02  0.1194E+03
    -15.412  0.2037E+02  0.1197E+03
    -15.397  0.2047E+02  0.1200E+03
    -15.382  0.2056E+02  0.1203E+03
    -15.367  0.2065E+02  0.1207E+03
    -15.352  0.2073E+02  0.1210E+03
    -15.337  0.2081E+02  0.1213E+03
    -15.322  0.2088E+02  0.1216E+03
    -15.306  0.2095E+02  0.1219E+03
    -15.291  0.2102E+02  0.1222E+03
    -15.276  0.2109E+02  0.1225E+03
    -15.261  0.2115E+02  0.1229E+03
    -15.246  0.2121E+02  0.1232E+03
    -15.231  0.2127E+02  0.1235E+03
    -15.216  0.2133E+02  0.1238E+03
    -15.201  0.2139E+02  0.1241E+03
    -15.186  0.2146E+02  0.1245E+03
    -15.171  0.2152E+02  0.1248E+03
    -15.156  0.2159E+02  0.1251E+03
    -15.141  0.2166E+02  0.1254E+03
    -15.126  0.2173E+02  0.1258E+03
    -15.111  0.2181E+02  0.1261E+03
    -15.096  0.2190E+02  0.1264E+03
    -15.081  0.2199E+02  0.1268E+03
    -15.065  0.2208E+02  0.1271E+03
    -15.050  0.2218E+02  0.1274E+03
    -15.035  0.2228E+02  0.1278E+03
    -15.020  0.2238E+02  0.1281E+03
    -15.005  0.2248E+02  0.1284E+03
    -14.990  0.2258E+02  0.1288E+03
    -14.975  0.2267E+02  0.1291E+03
    -14.960  0.2275E+02  0.1295E+03
    -14.945  0.2281E+02  0.1298E+03
    -14.930  0.2286E+02  0.1302E+03
    -14.915  0.2290E+02  0.1305E+03
    -14.900  0.2291E+02  0.1308E+03
    -14.885  0.2290E+02  0.1312E+03
    -14.870  0.2287E+02  0.1315E+03
    -14.855  0.2281E+02  0.1319E+03
    -14.840  0.2273E+02  0.1322E+03
    -14.824  0.2263E+02  0.1326E+03
    -14.809  0.2251E+02  0.1329E+03
    -14.794  0.2238E+02  0.1332E+03
    -14.779  0.2222E+02  0.1336E+03
    -14.764  0.2206E+02  0.1339E+03
    -14.749  0.2189E+02  0.1342E+03
    -14.734  0.2172E+02  0.1346E+03
    -14.719  0.2154E+02  0.1349E+03
    -14.704  0.2137E+02  0.1352E+03
    -14.689  0.2120E+02  0.1355E+03
    -14.674  0.2103E+02  0.1358E+03
    -14.659  0.2088E+02  0.1362E+03
    -14.644  0.2074E+02  0.1365E+03
    -14.629  0.2060E+02  0.1368E+03
    -14.614  0.2048E+02  0.1371E+03
    -14.599  0.2037E+02  0.1374E+03
    -14.583  0.2028E+02  0.1377E+03
    -14.568  0.2020E+02  0.1380E+03
    -14.553  0.2014E+02  0.1383E+03
    -14.538  0.2009E+02  0.1386E+03
    -14.523  0.2005E+02  0.1389E+03
    -14.508  0.2003E+02  0.1392E+03
    -14.493  0.2003E+02  0.1395E+03
    -14.478  0.2004E+02  0.1398E+03
    -14.463  0.2006E+02  0.1401E+03
    -14.448  0.2010E+02  0.1404E+03
    -14.433  0.2015E+02  0.1407E+03
    -14.418  0.2020E+02  0.1410E+03
    -14.403  0.2027E+02  0.1413E+03
    -14.388  0.2034E+02  0.1416E+03
    -14.373  0.2042E+02  0.1419E+03
    -14.358  0.2050E+02  0.1423E+03
    -14.343  0.2058E+02  0.1426E+03
    -14.327  0.2066E+02  0.1429E+03
    -14.312  0.2074E+02  0.1432E+03
    -14.297  0.2082E+02  0.1435E+03
    -14.282  0.2089E+02  0.1438E+03
    -14.267  0.2097E+02  0.1441E+03
    -14.252  0.2104E+02  0.1445E+03
    -14.237  0.2111E+02  0.1448E+03
    -14.222  0.2117E+02  0.1451E+03
    -14.207  0.2124E+02  0.1454E+03
    -14.192  0.2131E+02  0.1457E+03
    -14.177  0.2138E+02  0.1461E+03
    -14.162  0.2145E+02  0.1464E+03
    -14.147  0.2151E+02  0.1467E+03
    -14.132  0.2157E+02  0.1470E+03
    -14.117  0.2163E+02  0.1473E+03
    -14.102  0.2169E+02  0.1477E+03
    -14.086  0.2173E+02  0.1480E+03
    -14.071  0.2177E+02  0.1483E+03
    -14.056  0.2180E+02  0.1487E+03
    -14.041  0.2182E+02  0.1490E+03
    -14.026  0.2182E+02  0.1493E+03
    -14.011  0.2182E+02  0.1496E+03
    -13.996  0.2180E+02  0.1500E+03
    -13.981  0.2178E+02  0.1503E+03
    -13.966  0.2175E+02  0.1506E+03
    -13.951  0.2172E+02  0.1510E+03
    -13.936  0.2169E+02  0.1513E+03
    -13.921  0.2167E+02  0.1516E+03
    -13.906  0.2165E+02  0.1519E+03
    -13.891  0.2165E+02  0.1523E+03
    -13.876  0.2166E+02  0.1526E+03
    -13.861  0.2168E+02  0.1529E+03
    -13.845  0.2173E+02  0.1532E+03
    -13.830  0.2179E+02  0.1536E+03
    -13.815  0.2187E+02  0.1539E+03
    -13.800  0.2196E+02  0.1542E+03
    -13.785  0.2207E+02  0.1546E+03
    -13.770  0.2218E+02  0.1549E+03
    -13.755  0.2231E+02  0.1552E+03
    -13.740  0.2243E+02  0.1556E+03
    -13.725  0.2255E+02  0.1559E+03
    -13.710  0.2266E+02  0.1563E+03
    -13.695  0.2275E+02  0.1566E+03
    -13.680  0.2283E+02  0.1569E+03
    -13.665  0.2289E+02  0.1573E+03
    -13.650  0.2292E+02  0.1576E+03
    -13.635  0.2293E+02  0.1580E+03
    -13.620  0.2292E+02  0.1583E+03
    -13.604  0.2288E+02  0.1587E+03
    -13.589  0.2282E+02  0.1590E+03
    -13.574  0.2274E+02  0.1593E+03
    -13.559  0.2264E+02  0.1597E+03
    -13.544  0.2253E+02  0.1600E+03
    -13.529  0.2241E+02  0.1604E+03
    -13.514  0.2228E+02  0.1607E+03
    -13.499  0.2215E+02  0.1610E+03
    -13.484  0.2203E+02  0.1614E+03
    -13.469  0.2191E+02  0.1617E+03
    -13.454  0.2180E+02  0.1620E+03
    -13.439  0.2170E+02  0.1624E+03
    -13.424  0.2161E+02  0.1627E+03
    -13.409  0.2153E+02  0.1630E+03
    -13.394  0.2147E+02  0.1633E+03
    -13.379  0.2142E+02  0.1636E+03
    -13.363  0.2138E+02  0.1640E+03
    -13.348  0.2134E+02  0.1643E+03
    -13.333  0.2131E+02  0.1646E+03
    -13.318  0.2129E+02  0.1649E+03
    -13.303  0.2126E+02  0.1653E+03
    -13.288  0.2123E+02  0.1656E+03
    -13.273  0.2119E+02  0.1659E+03
    -13.258  0.2115E+02  0.1662E+03
    -13.243  0.2111E+02  0.1665E+03
    -13.228  0.2106E+02  0.1668E+03
    -13.213  0.2100E+02  0.1672E+03
    -13.198  0.2095E+02  0.1675E+03
    -13.183  0.2089E+02  0.1678E+03
    -13.168  0.2085E+02  0.1681E+03
    -13.153  0.2081E+02  0.1684E+03
    -13.138  0.2079E+02  0.1687E+03
    -13.122  0.2079E+02  0.1690E+03
    -13.107  0.2081E+02  0.1694E+03
    -13.092  0.2085E+02  0.1697E+03
    -13.077  0.2092E+02  0.1700E+03
    -13.062  0.2102E+02  0.1703E+03
    -13.047  0.2115E+02  0.1706E+03
    -13.032  0.2130E+02  0.1709E+03
    -13.017  0.2148E+02  0.1713E+03
    -13.002  0.2167E+02  0.1716E+03
    -12.987  0.2187E+02  0.1719E+03
    -12.972  0.2208E+02  0.1723E+03
    -12.957  0.2229E+02  0.1726E+03
    -12.942  0.2249E+02  0.1729E+03
    -12.927  0.2267E+02  0.1733E+03
    -12.912  0.2282E+02  0.1736E+03
    -12.897  0.2295E+02  0.1740E+03
    -12.881  0.2304E+02  0.1743E+03
    -12.866  0.2309E+02  0.1747E+03
    -12.851  0.2310E+02  0.1750E+03
    -12.836  0.2307E+02  0.1754E+03
    -12.821  0.2299E+02  0.1757E+03
    -12.806  0.2288E+02  0.1760E+03
    -12.791  0.2272E+02  0.1764E+03
    -12.776  0.2253E+02  0.1767E+03
    -12.761  0.2231E+02  0.1771E+03
    -12.746  0.2206E+02  0.1774E+03
    -12.731  0.2180E+02  0.1777E+03
    -12.716  0.2152E+02  0.1780E+03
    -12.701  0.2124E+02  0.1784E+03
    -12.686  0.2097E+02  0.1787E+03
    -12.671  0.2070E+02  0.1790E+03
    -12.656  0.2045E+02  0.1793E+03
    -12.640  0.2023E+02  0.1796E+03
    -12.625  0.2003E+02  0.1799E+03
    -12.610  0.1986E+02  0.1802E+03
    -12.595  0.1973E+02  0.1805E+03
    -12.580  0.1963E+02  0.1808E+03
    -12.565  0.1956E+02  0.1811E+03
    -12.550  0.1954E+02  0.1814E+03
    -12.535  0.1954E+02  0.1817E+03
    -12.520  0.1958E+02  0.1820E+03
    -12.505  0.1964E+02  0.1823E+03
    -12.490  0.1972E+02  0.1826E+03
    -12.475  0.1982E+02  0.1829E+03
    -12.460  0.1993E+02  0.1832E+03
    -12.445  0.2005E+02  0.1835E+03
    -12.430  0.2018E+02  0.1838E+03
    -12.415  0.2030E+02  0.1841E+03
    -12.399  0.2042E+02  0.1844E+03
    -12.384  0.2055E+02  0.1847E+03
    -12.369  0.2066E+02  0.1850E+03
    -12.354  0.2078E+02  0.1853E+03
    -12.339  0.2089E+02  0.1856E+03
    -12.324  0.2101E+02  0.1860E+03
    -12.309  0.2112E+02  0.1863E+03
    -12.294  0.2124E+02  0.1866E+03
    -12.279  0.2135E+02  0.1869E+03
    -12.264  0.2148E+02  0.1872E+03
    -12.249  0.2160E+02  0.1876E+03
    -12.234  0.2173E+02  0.1879E+03
    -12.219  0.2187E+02  0.1882E+03
    -12.204  0.2201E+02  0.1886E+03
    -12.189  0.2215E+02  0.1889E+03
    -12.174  0.2229E+02  0.1892E+03
    -12.158  0.2244E+02  0.1896E+03
    -12.143  0.2258E+02  0.1899E+03
    -12.128  0.2272E+02  0.1902E+03
    -12.113  0.2285E+02  0.1906E+03
    -12.098  0.2299E+02  0.1909E+03