 249 249   0   0
  0.4992237E+02  0.2893612E-08  0.2147950E-08  0.2000000E-08  0.5000000E-15
  1.000000000000000E-004
  CAR 
 unknown system                          
      3.47418174    -24.18513614 2000     -3.55600923      1.00000000
    -24.185  0.0000E+00  0.0000E+00
    -24.171  0.0000E+00  0.0000E+00
    -24.157  0.0000E+00  0.0000E+00
    -24.144  0.0000E+00  0.0000E+00
    -24.130  0.0000E+00  0.0000E+00
    -24.116  0.0000E+00  0.0000E+00
    -24.102  0.0000E+00  0.0000E+00
    -24.088  0.0000E+00  0.0000E+00
    -24.074  0.0000E+00  0.0000E+00
    -24.061  0.0000E+00  0.0000E+00
    -24.047  0.0000E+00  0.0000E+00
    -24.033  0.0000E+00  0.0000E+00
    -24.019  0.0000E+00  0.0000E+00
    -24.005  0.0000E+00  0.0000E+00
    -23.991  0.0000E+00  0.0000E+00
    -23.978  0.0000E+00  0.0000E+00
    -23.964  0.0000E+00  0.0000E+00
    -23.950  0.0000E+00  0.0000E+00
    -23.936  0.0000E+00  0.0000E+00
    -23.922  0.0000E+00  0.0000E+00
    -23.908  0.0000E+00  0.0000E+00
    -23.895  0.0000E+00  0.0000E+00
    -23.881  0.0000E+00  0.0000E+00
    -23.867  0.0000E+00  0.0000E+00
    -23.853  0.0000E+00  0.0000E+00
    -23.839  0.0000E+00  0.0000E+00
    -23.825  0.0000E+00  0.0000E+00
    -23.812  0.0000E+00  0.0000E+00
    -23.798  0.0000E+00  0.0000E+00
    -23.784  0.0000E+00  0.0000E+00
    -23.770  0.0000E+00  0.0000E+00
    -23.756  0.0000E+00  0.0000E+00
    -23.742  0.0000E+00  0.0000E+00
    -23.729  0.0000E+00  0.0000E+00
    -23.715  0.0000E+00  0.0000E+00
    -23.701  0.0000E+00  0.0000E+00
    -23.687  0.0000E+00  0.0000E+00
    -23.673  0.0000E+00  0.0000E+00
    -23.659  0.0000E+00  0.0000E+00
    -23.646  0.0000E+00  0.0000E+00
    -23.632  0.0000E+00  0.0000E+00
    -23.618  0.0000E+00  0.0000E+00
    -23.604  0.0000E+00  0.0000E+00
    -23.590  0.0000E+00  0.0000E+00
    -23.576  0.0000E+00  0.0000E+00
    -23.562  0.0000E+00  0.0000E+00
    -23.549  0.0000E+00  0.0000E+00
    -23.535  0.0000E+00  0.0000E+00
    -23.521  0.0000E+00  0.0000E+00
    -23.507  0.0000E+00  0.0000E+00
    -23.493  0.0000E+00  0.0000E+00
    -23.479  0.0000E+00  0.0000E+00
    -23.466  0.0000E+00  0.0000E+00
    -23.452  0.0000E+00  0.0000E+00
    -23.438  0.0000E+00  0.0000E+00
    -23.424  0.0000E+00  0.0000E+00
    -23.410  0.0000E+00  0.0000E+00
    -23.396  0.0000E+00  0.0000E+00
    -23.383  0.0000E+00  0.0000E+00
    -23.369  0.2675E-14  0.3701E-16
    -23.355  0.5349E-14  0.1110E-15
    -23.341  0.5349E-14  0.1850E-15
    -23.327  0.1872E-13  0.4441E-15
    -23.313  0.4012E-13  0.9992E-15
    -23.300  0.9005E-13  0.2245E-14
    -23.286  0.1854E-12  0.4811E-14
    -23.272  0.4190E-12  0.1061E-13
    -23.258  0.8782E-12  0.2276E-13
    -23.244  0.1863E-11  0.4854E-13
    -23.230  0.3907E-11  0.1026E-12
    -23.217  0.8115E-11  0.2149E-12
    -23.203  0.1669E-10  0.4457E-12
    -23.189  0.3398E-10  0.9159E-12
    -23.175  0.6858E-10  0.1865E-11
    -23.161  0.1371E-09  0.3762E-11
    -23.147  0.2715E-09  0.7518E-11
    -23.134  0.5326E-09  0.1489E-10
    -23.120  0.1035E-08  0.2921E-10
    -23.106  0.1993E-08  0.5678E-10
    -23.092  0.3800E-08  0.1094E-09
    -23.078  0.7179E-08  0.2087E-09
    -23.064  0.1344E-07  0.3946E-09
    -23.051  0.2491E-07  0.7393E-09
    -23.037  0.4576E-07  0.1372E-08
    -23.023  0.8327E-07  0.2525E-08
    -23.009  0.1501E-06  0.4601E-08
    -22.995  0.2680E-06  0.8310E-08
    -22.981  0.4742E-06  0.1487E-07
    -22.968  0.8311E-06  0.2637E-07
    -22.954  0.1443E-05  0.4634E-07
    -22.940  0.2483E-05  0.8069E-07
    -22.926  0.4231E-05  0.1392E-06
    -22.912  0.7143E-05  0.2381E-06
    -22.898  0.1195E-04  0.4034E-06
    -22.884  0.1980E-04  0.6774E-06
    -22.871  0.3251E-04  0.1127E-05
    -22.857  0.5289E-04  0.1859E-05
    -22.843  0.8523E-04  0.3038E-05
    -22.829  0.1361E-03  0.4921E-05
    -22.815  0.2153E-03  0.7900E-05
    -22.801  0.3375E-03  0.1257E-04
    -22.788  0.5241E-03  0.1982E-04
    -22.774  0.8064E-03  0.3098E-04
    -22.760  0.1229E-02  0.4799E-04
    -22.746  0.1857E-02  0.7369E-04
    -22.732  0.2780E-02  0.1122E-03
    -22.718  0.4123E-02  0.1692E-03
    -22.705  0.6059E-02  0.2530E-03
    -22.691  0.8822E-02  0.3751E-03
    -22.677  0.1273E-01  0.5512E-03
    -22.663  0.1820E-01  0.8031E-03
    -22.649  0.2579E-01  0.1160E-02
    -22.635  0.3620E-01  0.1661E-02
    -22.622  0.5037E-01  0.2358E-02
    -22.608  0.6944E-01  0.3319E-02
    -22.594  0.9488E-01  0.4631E-02
    -22.580  0.1285E+00  0.6409E-02
    -22.566  0.1724E+00  0.8794E-02
    -22.552  0.2293E+00  0.1197E-01
    -22.539  0.3022E+00  0.1615E-01
    -22.525  0.3948E+00  0.2161E-01
    -22.511  0.5111E+00  0.2868E-01
    -22.497  0.6559E+00  0.3776E-01
    -22.483  0.8343E+00  0.4930E-01
    -22.469  0.1052E+01  0.6385E-01
    -22.456  0.1315E+01  0.8204E-01
    -22.442  0.1628E+01  0.1046E+00
    -22.428  0.2000E+01  0.1322E+00
    -22.414  0.2435E+01  0.1659E+00
    -22.400  0.2938E+01  0.2066E+00
    -22.386  0.3516E+01  0.2552E+00
    -22.373  0.4171E+01  0.3130E+00
    -22.359  0.4907E+01  0.3808E+00
    -22.345  0.5723E+01  0.4600E+00
    -22.331  0.6619E+01  0.5516E+00
    -22.317  0.7592E+01  0.6567E+00
    -22.303  0.8636E+01  0.7762E+00
    -22.290  0.9743E+01  0.9110E+00
    -22.276  0.1090E+02  0.1062E+01
    -22.262  0.1210E+02  0.1229E+01
    -22.248  0.1333E+02  0.1414E+01
    -22.234  0.1457E+02  0.1615E+01
    -22.220  0.1580E+02  0.1834E+01
    -22.207  0.1700E+02  0.2069E+01
    -22.193  0.1817E+02  0.2321E+01
    -22.179  0.1927E+02  0.2587E+01
    -22.165  0.2031E+02  0.2868E+01
    -22.151  0.2125E+02  0.3162E+01
    -22.137  0.2211E+02  0.3468E+01
    -22.123  0.2285E+02  0.3784E+01
    -22.110  0.2349E+02  0.4109E+01
    -22.096  0.2403E+02  0.4442E+01
    -22.082  0.2446E+02  0.4780E+01
    -22.068  0.2480E+02  0.5124E+01
    -22.054  0.2506E+02  0.5470E+01
    -22.040  0.2524E+02  0.5820E+01
    -22.027  0.2537E+02  0.6171E+01
    -22.013  0.2546E+02  0.6523E+01
    -21.999  0.2553E+02  0.6876E+01
    -21.985  0.2559E+02  0.7230E+01
    -21.971  0.2567E+02  0.7585E+01
    -21.957  0.2578E+02  0.7942E+01
    -21.944  0.2592E+02  0.8301E+01
    -21.930  0.2612E+02  0.8662E+01
    -21.916  0.2638E+02  0.9027E+01
    -21.902  0.2670E+02  0.9397E+01
    -21.888  0.2708E+02  0.9771E+01
    -21.874  0.2753E+02  0.1015E+02
    -21.861  0.2803E+02  0.1054E+02
    -21.847  0.2859E+02  0.1094E+02
    -21.833  0.2919E+02  0.1134E+02
    -21.819  0.2982E+02  0.1175E+02
    -21.805  0.3046E+02  0.1217E+02
    -21.791  0.3112E+02  0.1260E+02
    -21.778  0.3177E+02  0.1304E+02
    -21.764  0.3239E+02  0.1349E+02
    -21.750  0.3298E+02  0.1395E+02
    -21.736  0.3353E+02  0.1441E+02
    -21.722  0.3402E+02  0.1488E+02
    -21.708  0.3445E+02  0.1536E+02
    -21.695  0.3481E+02  0.1584E+02
    -21.681  0.3510E+02  0.1633E+02
    -21.667  0.3530E+02  0.1682E+02
    -21.653  0.3543E+02  0.1731E+02
    -21.639  0.3549E+02  0.1780E+02
    -21.625  0.3548E+02  0.1829E+02
    -21.612  0.3540E+02  0.1878E+02
    -21.598  0.3527E+02  0.1927E+02
    -21.584  0.3510E+02  0.1975E+02
    -21.570  0.3490E+02  0.2023E+02
    -21.556  0.3468E+02  0.2071E+02
    -21.542  0.3446E+02  0.2119E+02
    -21.529  0.3424E+02  0.2166E+02
    -21.515  0.3403E+02  0.2214E+02
    -21.501  0.3386E+02  0.2260E+02
    -21.487  0.3373E+02  0.2307E+02
    -21.473  0.3364E+02  0.2354E+02
    -21.459  0.3360E+02  0.2400E+02
    -21.445  0.3361E+02  0.2447E+02
    -21.432  0.3368E+02  0.2493E+02
    -21.418  0.3380E+02  0.2540E+02
    -21.404  0.3397E+02  0.2587E+02
    -21.390  0.3417E+02  0.2634E+02
    -21.376  0.3441E+02  0.2682E+02
    -21.362  0.3468E+02  0.2730E+02
    -21.349  0.3496E+02  0.2778E+02
    -21.335  0.3523E+02  0.2827E+02
    -21.321  0.3551E+02  0.2876E+02
    -21.307  0.3576E+02  0.2926E+02
    -21.293  0.3598E+02  0.2975E+02
    -21.279  0.3617E+02  0.3025E+02
    -21.266  0.3632E+02  0.3076E+02
    -21.252  0.3643E+02  0.3126E+02
    -21.238  0.3649E+02  0.3177E+02
    -21.224  0.3650E+02  0.3227E+02
    -21.210  0.3646E+02  0.3278E+02
    -21.196  0.3639E+02  0.3328E+02
    -21.183  0.3629E+02  0.3378E+02
    -21.169  0.3616E+02  0.3428E+02
    -21.155  0.3601E+02  0.3478E+02
    -21.141  0.3586E+02  0.3528E+02
    -21.127  0.3571E+02  0.3577E+02
    -21.113  0.3558E+02  0.3626E+02
    -21.100  0.3546E+02  0.3675E+02
    -21.086  0.3538E+02  0.3724E+02
    -21.072  0.3533E+02  0.3773E+02
    -21.058  0.3532E+02  0.3822E+02
    -21.044  0.3535E+02  0.3871E+02
    -21.030  0.3542E+02  0.3920E+02
    -21.017  0.3553E+02  0.3969E+02
    -21.003  0.3567E+02  0.4018E+02
    -20.989  0.3585E+02  0.4068E+02
    -20.975  0.3604E+02  0.4118E+02
    -20.961  0.3624E+02  0.4168E+02
    -20.947  0.3645E+02  0.4218E+02
    -20.934  0.3664E+02  0.4269E+02
    -20.920  0.3682E+02  0.4320E+02
    -20.906  0.3697E+02  0.4371E+02
    -20.892  0.3707E+02  0.4423E+02
    -20.878  0.3714E+02  0.4474E+02
    -20.864  0.3715E+02  0.4525E+02
    -20.851  0.3711E+02  0.4577E+02
    -20.837  0.3702E+02  0.4628E+02
    -20.823  0.3687E+02  0.4679E+02
    -20.809  0.3668E+02  0.4730E+02
    -20.795  0.3643E+02  0.4780E+02
    -20.781  0.3615E+02  0.4830E+02
    -20.768  0.3583E+02  0.4880E+02
    -20.754  0.3550E+02  0.4929E+02
    -20.740  0.3514E+02  0.4977E+02
    -20.726  0.3478E+02  0.5026E+02
    -20.712  0.3443E+02  0.5073E+02
    -20.698  0.3408E+02  0.5120E+02
    -20.684  0.3376E+02  0.5167E+02
    -20.671  0.3347E+02  0.5213E+02
    -20.657  0.3321E+02  0.5259E+02
    -20.643  0.3299E+02  0.5305E+02
    -20.629  0.3283E+02  0.5350E+02
    -20.615  0.3271E+02  0.5396E+02
    -20.601  0.3264E+02  0.5441E+02
    -20.588  0.3263E+02  0.5486E+02
    -20.574  0.3268E+02  0.5531E+02
    -20.560  0.3278E+02  0.5577E+02
    -20.546  0.3294E+02  0.5622E+02
    -20.532  0.3315E+02  0.5668E+02
    -20.518  0.3341E+02  0.5714E+02
    -20.505  0.3372E+02  0.5761E+02
    -20.491  0.3407E+02  0.5808E+02
    -20.477  0.3446E+02  0.5856E+02
    -20.463  0.3488E+02  0.5904E+02
    -20.449  0.3532E+02  0.5953E+02
    -20.435  0.3578E+02  0.6002E+02
    -20.422  0.3625E+02  0.6052E+02
    -20.408  0.3671E+02  0.6103E+02
    -20.394  0.3716E+02  0.6155E+02
    -20.380  0.3760E+02  0.6207E+02
    -20.366  0.3800E+02  0.6259E+02
    -20.352  0.3838E+02  0.6312E+02
    -20.339  0.3871E+02  0.6366E+02
    -20.325  0.3900E+02  0.6420E+02
    -20.311  0.3924E+02  0.6474E+02
    -20.297  0.3942E+02  0.6529E+02
    -20.283  0.3956E+02  0.6584E+02
    -20.269  0.3966E+02  0.6638E+02
    -20.256  0.3970E+02  0.6693E+02
    -20.242  0.3971E+02  0.6748E+02
    -20.228  0.3967E+02  0.6803E+02
    -20.214  0.3961E+02  0.6858E+02
    -20.200  0.3951E+02  0.6913E+02
    -20.186  0.3940E+02  0.6967E+02
    -20.173  0.3927E+02  0.7021E+02
    -20.159  0.3913E+02  0.7076E+02
    -20.145  0.3898E+02  0.7130E+02
    -20.131  0.3884E+02  0.7183E+02
    -20.117  0.3869E+02  0.7237E+02
    -20.103  0.3854E+02  0.7290E+02
    -20.090  0.3841E+02  0.7343E+02
    -20.076  0.3827E+02  0.7396E+02
    -20.062  0.3815E+02  0.7449E+02
    -20.048  0.3803E+02  0.7502E+02
    -20.034  0.3793E+02  0.7554E+02
    -20.020  0.3783E+02  0.7606E+02
    -20.006  0.3775E+02  0.7659E+02
    -19.993  0.3767E+02  0.7711E+02
    -19.979  0.3761E+02  0.7763E+02
    -19.965  0.3755E+02  0.7815E+02
    -19.951  0.3751E+02  0.7867E+02
    -19.937  0.3748E+02  0.7919E+02
    -19.923  0.3745E+02  0.7970E+02
    -19.910  0.3744E+02  0.8022E+02
    -19.896  0.3744E+02  0.8074E+02
    -19.882  0.3744E+02  0.8126E+02
    -19.868  0.3745E+02  0.8178E+02
    -19.854  0.3747E+02  0.8229E+02
    -19.840  0.3750E+02  0.8281E+02
    -19.827  0.3753E+02  0.8333E+02
    -19.813  0.3757E+02  0.8385E+02
    -19.799  0.3762E+02  0.8437E+02
    -19.785  0.3767E+02  0.8489E+02
    -19.771  0.3774E+02  0.8542E+02
    -19.757  0.3782E+02  0.8594E+02
    -19.744  0.3791E+02  0.8646E+02
    -19.730  0.3802E+02  0.8699E+02
    -19.716  0.3814E+02  0.8752E+02
    -19.702  0.3828E+02  0.8805E+02
    -19.688  0.3845E+02  0.8858E+02
    -19.674  0.3863E+02  0.8911E+02
    -19.661  0.3883E+02  0.8965E+02
    -19.647  0.3905E+02  0.9019E+02
    -19.633  0.3930E+02  0.9074E+02
    -19.619  0.3955E+02  0.9128E+02
    -19.605  0.3983E+02  0.9183E+02
    -19.591  0.4011E+02  0.9239E+02
    -19.578  0.4041E+02  0.9295E+02
    -19.564  0.4071E+02  0.9351E+02
    -19.550  0.4101E+02  0.9408E+02
    -19.536  0.4131E+02  0.9465E+02
    -19.522  0.4161E+02  0.9523E+02
    -19.508  0.4190E+02  0.9581E+02
    -19.495  0.4217E+02  0.9639E+02
    -19.481  0.4243E+02  0.9698E+02
    -19.467  0.4267E+02  0.9757E+02
    -19.453  0.4289E+02  0.9816E+02
    -19.439  0.4309E+02  0.9876E+02
    -19.425  0.4325E+02  0.9936E+02
    -19.412  0.4340E+02  0.9996E+02
    -19.398  0.4351E+02  0.1006E+03
    -19.384  0.4359E+02  0.1012E+03
    -19.370  0.4363E+02  0.1018E+03
    -19.356  0.4364E+02  0.1024E+03
    -19.342  0.4362E+02  0.1030E+03
    -19.328  0.4356E+02  0.1036E+03
    -19.315  0.4347E+02  0.1042E+03
    -19.301  0.4334E+02  0.1048E+03
    -19.287  0.4318E+02  0.1054E+03
    -19.273  0.4299E+02  0.1060E+03
    -19.259  0.4277E+02  0.1066E+03
    -19.245  0.4254E+02  0.1071E+03
    -19.232  0.4228E+02  0.1077E+03
    -19.218  0.4200E+02  0.1083E+03
    -19.204  0.4172E+02  0.1089E+03
    -19.190  0.4143E+02  0.1095E+03
    -19.176  0.4115E+02  0.1100E+03
    -19.162  0.4087E+02  0.1106E+03
    -19.149  0.4060E+02  0.1112E+03
    -19.135  0.4035E+02  0.1117E+03
    -19.121  0.4011E+02  0.1123E+03
    -19.107  0.3989E+02  0.1128E+03
    -19.093  0.3970E+02  0.1134E+03
    -19.079  0.3952E+02  0.1139E+03
    -19.066  0.3937E+02  0.1145E+03
    -19.052  0.3924E+02  0.1150E+03
    -19.038  0.3913E+02  0.1156E+03
    -19.024  0.3904E+02  0.1161E+03
    -19.010  0.3896E+02  0.1166E+03
    -18.996  0.3890E+02  0.1172E+03
    -18.983  0.3886E+02  0.1177E+03
    -18.969  0.3882E+02  0.1182E+03
    -18.955  0.3880E+02  0.1188E+03
    -18.941  0.3880E+02  0.1193E+03
    -18.927  0.3881E+02  0.1199E+03
    -18.913  0.3884E+02  0.1204E+03
    -18.900  0.3888E+02  0.1209E+03
    -18.886  0.3896E+02  0.1215E+03
    -18.872  0.3905E+02  0.1220E+03
    -18.858  0.3918E+02  0.1226E+03
    -18.844  0.3933E+02  0.1231E+03
    -18.830  0.3951E+02  0.1236E+03
    -18.817  0.3972E+02  0.1242E+03
    -18.803  0.3995E+02  0.1247E+03
    -18.789  0.4021E+02  0.1253E+03
    -18.775  0.4048E+02  0.1259E+03
    -18.761  0.4077E+02  0.1264E+03
    -18.747  0.4107E+02  0.1270E+03
    -18.734  0.4136E+02  0.1276E+03
    -18.720  0.4165E+02  0.1281E+03
    -18.706  0.4193E+02  0.1287E+03
    -18.692  0.4219E+02  0.1293E+03
    -18.678  0.4243E+02  0.1299E+03
    -18.664  0.4264E+02  0.1305E+03
    -18.651  0.4282E+02  0.1311E+03
    -18.637  0.4297E+02  0.1317E+03
    -18.623  0.4310E+02  0.1323E+03
    -18.609  0.4319E+02  0.1329E+03
    -18.595  0.4327E+02  0.1335E+03
    -18.581  0.4332E+02  0.1341E+03
    -18.567  0.4336E+02  0.1347E+03
    -18.554  0.4339E+02  0.1353E+03
    -18.540  0.4342E+02  0.1359E+03
    -18.526  0.4346E+02  0.1365E+03
    -18.512  0.4350E+02  0.1371E+03
    -18.498  0.4355E+02  0.1377E+03
    -18.484  0.4362E+02  0.1383E+03
    -18.471  0.4370E+02  0.1389E+03
    -18.457  0.4380E+02  0.1395E+03
    -18.443  0.4391E+02  0.1401E+03
    -18.429  0.4404E+02  0.1407E+03
    -18.415  0.4417E+02  0.1413E+03
    -18.401  0.4431E+02  0.1419E+03
    -18.388  0.4445E+02  0.1425E+03
    -18.374  0.4458E+02  0.1432E+03
    -18.360  0.4470E+02  0.1438E+03
    -18.346  0.4482E+02  0.1444E+03
    -18.332  0.4491E+02  0.1450E+03
    -18.318  0.4498E+02  0.1456E+03
    -18.305  0.4504E+02  0.1463E+03
    -18.291  0.4506E+02  0.1469E+03
    -18.277  0.4506E+02  0.1475E+03
    -18.263  0.4504E+02  0.1481E+03
    -18.249  0.4498E+02  0.1488E+03
    -18.235  0.4490E+02  0.1494E+03
    -18.222  0.4480E+02  0.1500E+03
    -18.208  0.4467E+02  0.1506E+03
    -18.194  0.4452E+02  0.1512E+03
    -18.180  0.4435E+02  0.1518E+03
    -18.166  0.4416E+02  0.1525E+03
    -18.152  0.4395E+02  0.1531E+03
    -18.139  0.4373E+02  0.1537E+03
    -18.125  0.4350E+02  0.1543E+03
    -18.111  0.4325E+02  0.1549E+03
    -18.097  0.4300E+02  0.1555E+03
    -18.083  0.4274E+02  0.1561E+03
    -18.069  0.4247E+02  0.1566E+03
    -18.056  0.4221E+02  0.1572E+03
    -18.042  0.4195E+02  0.1578E+03
    -18.028  0.4170E+02  0.1584E+03
    -18.014  0.4145E+02  0.1590E+03
    -18.000  0.4122E+02  0.1595E+03
    -17.986  0.4100E+02  0.1601E+03
    -17.973  0.4080E+02  0.1607E+03
    -17.959  0.4062E+02  0.1612E+03
    -17.945  0.4046E+02  0.1618E+03
    -17.931  0.4033E+02  0.1623E+03
    -17.917  0.4022E+02  0.1629E+03
    -17.903  0.4013E+02  0.1635E+03
    -17.889  0.4007E+02  0.1640E+03
    -17.876  0.4004E+02  0.1646E+03
    -17.862  0.4003E+02  0.1651E+03
    -17.848  0.4004E+02  0.1657E+03
    -17.834  0.4008E+02  0.1662E+03
    -17.820  0.4013E+02  0.1668E+03
    -17.806  0.4020E+02  0.1673E+03
    -17.793  0.4029E+02  0.1679E+03
    -17.779  0.4040E+02  0.1685E+03
    -17.765  0.4051E+02  0.1690E+03
    -17.751  0.4063E+02  0.1696E+03
    -17.737  0.4076E+02  0.1701E+03
    -17.723  0.4089E+02  0.1707E+03
    -17.710  0.4102E+02  0.1713E+03
    -17.696  0.4115E+02  0.1718E+03
    -17.682  0.4127E+02  0.1724E+03
    -17.668  0.4137E+02  0.1730E+03
    -17.654  0.4146E+02  0.1736E+03
    -17.640  0.4154E+02  0.1741E+03
    -17.627  0.4158E+02  0.1747E+03
    -17.613  0.4161E+02  0.1753E+03
    -17.599  0.4160E+02  0.1759E+03
    -17.585  0.4157E+02  0.1764E+03
    -17.571  0.4150E+02  0.1770E+03
    -17.557  0.4140E+02  0.1776E+03
    -17.544  0.4128E+02  0.1782E+03
    -17.530  0.4113E+02  0.1787E+03
    -17.516  0.4096E+02  0.1793E+03
    -17.502  0.4077E+02  0.1799E+03
    -17.488  0.4057E+02  0.1804E+03
    -17.474  0.4036E+02  0.1810E+03
    -17.461  0.4015E+02  0.1815E+03
    -17.447  0.3995E+02  0.1821E+03
    -17.433  0.3976E+02  0.1826E+03
    -17.419  0.3958E+02  0.1832E+03
    -17.405  0.3943E+02  0.1837E+03
    -17.391  0.3931E+02  0.1843E+03
    -17.378  0.3921E+02  0.1848E+03
    -17.364  0.3915E+02  0.1854E+03
    -17.350  0.3912E+02  0.1859E+03
    -17.336  0.3912E+02  0.1864E+03
    -17.322  0.3915E+02  0.1870E+03
    -17.308  0.3922E+02  0.1875E+03
    -17.295  0.3931E+02  0.1881E+03
    -17.281  0.3944E+02  0.1886E+03
    -17.267  0.3958E+02  0.1892E+03
    -17.253  0.3975E+02  0.1897E+03
    -17.239  0.3993E+02  0.1903E+03
    -17.225  0.4013E+02  0.1908E+03
    -17.212  0.4034E+02  0.1914E+03
    -17.198  0.4056E+02  0.1919E+03
    -17.184  0.4079E+02  0.1925E+03
    -17.170  0.4103E+02  0.1931E+03
    -17.156  0.4127E+02  0.1936E+03
    -17.142  0.4151E+02  0.1942E+03
    -17.128  0.4176E+02  0.1948E+03
    -17.115  0.4202E+02  0.1954E+03
    -17.101  0.4227E+02  0.1960E+03
    -17.087  0.4253E+02  0.1965E+03
    -17.073  0.4278E+02  0.1971E+03
    -17.059  0.4302E+02  0.1977E+03
    -17.045  0.4326E+02  0.1983E+03
    -17.032  0.4349E+02  0.1989E+03
    -17.018  0.4370E+02  0.1995E+03
    -17.004  0.4389E+02  0.2001E+03
    -16.990  0.4406E+02  0.2008E+03
    -16.976  0.4420E+02  0.2014E+03
    -16.962  0.4431E+02  0.2020E+03
    -16.949  0.4438E+02  0.2026E+03
    -16.935  0.4442E+02  0.2032E+03
    -16.921  0.4442E+02  0.2038E+03
    -16.907  0.4437E+02  0.2044E+03
    -16.893  0.4429E+02  0.2050E+03
    -16.879  0.4417E+02  0.2057E+03
    -16.866  0.4401E+02  0.2063E+03
    -16.852  0.4383E+02  0.2069E+03
    -16.838  0.4361E+02  0.2075E+03
    -16.824  0.4338E+02  0.2081E+03
    -16.810  0.4312E+02  0.2087E+03
    -16.796  0.4286E+02  0.2093E+03
    -16.783  0.4259E+02  0.2099E+03
    -16.769  0.4232E+02  0.2104E+03
    -16.755  0.4206E+02  0.2110E+03
    -16.741  0.4180E+02  0.2116E+03
    -16.727  0.4155E+02  0.2122E+03
    -16.713  0.4132E+02  0.2127E+03
    -16.700  0.4110E+02  0.2133E+03
    -16.686  0.4090E+02  0.2139E+03
    -16.672  0.4071E+02  0.2144E+03
    -16.658  0.4054E+02  0.2150E+03
    -16.644  0.4038E+02  0.2156E+03
    -16.630  0.4023E+02  0.2161E+03
    -16.617  0.4010E+02  0.2167E+03
    -16.603  0.3997E+02  0.2172E+03
    -16.589  0.3986E+02  0.2178E+03
    -16.575  0.3975E+02  0.2183E+03
    -16.561  0.3966E+02  0.2189E+03
    -16.547  0.3957E+02  0.2194E+03
    -16.534  0.3948E+02  0.2200E+03
    -16.520  0.3941E+02  0.2205E+03
    -16.506  0.3933E+02  0.2211E+03
    -16.492  0.3927E+02  0.2216E+03
    -16.478  0.3921E+02  0.2221E+03
    -16.464  0.3916E+02  0.2227E+03
    -16.450  0.3911E+02  0.2232E+03
    -16.437  0.3907E+02  0.2238E+03
    -16.423  0.3903E+02  0.2243E+03
    -16.409  0.3900E+02  0.2249E+03
    -16.395  0.3898E+02  0.2254E+03
    -16.381  0.3896E+02  0.2259E+03
    -16.367  0.3896E+02  0.2265E+03
    -16.354  0.3896E+02  0.2270E+03
    -16.340  0.3897E+02  0.2275E+03
    -16.326  0.3899E+02  0.2281E+03
    -16.312  0.3903E+02  0.2286E+03
    -16.298  0.3907E+02  0.2292E+03
    -16.284  0.3912E+02  0.2297E+03
    -16.271  0.3917E+02  0.2303E+03
    -16.257  0.3924E+02  0.2308E+03
    -16.243  0.3930E+02  0.2313E+03
    -16.229  0.3937E+02  0.2319E+03
    -16.215  0.3943E+02  0.2324E+03
    -16.201  0.3950E+02  0.2330E+03
    -16.188  0.3956E+02  0.2335E+03
    -16.174  0.3961E+02  0.2341E+03
    -16.160  0.3966E+02  0.2346E+03
    -16.146  0.3970E+02  0.2352E+03
    -16.132  0.3975E+02  0.2357E+03
    -16.118  0.3979E+02  0.2363E+03
    -16.105  0.3983E+02  0.2368E+03
    -16.091  0.3987E+02  0.2374E+03
    -16.077  0.3992E+02  0.2379E+03
    -16.063  0.3998E+02  0.2385E+03
    -16.049  0.4005E+02  0.2390E+03
    -16.035  0.4013E+02  0.2396E+03
    -16.022  0.4021E+02  0.2401E+03
    -16.008  0.4031E+02  0.2407E+03
    -15.994  0.4042E+02  0.2413E+03
    -15.980  0.4054E+02  0.2418E+03
    -15.966  0.4065E+02  0.2424E+03
    -15.952  0.4077E+02  0.2429E+03
    -15.939  0.4088E+02  0.2435E+03
    -15.925  0.4097E+02  0.2441E+03
    -15.911  0.4106E+02  0.2446E+03
    -15.897  0.4112E+02  0.2452E+03
    -15.883  0.4116E+02  0.2458E+03
    -15.869  0.4118E+02  0.2464E+03
    -15.856  0.4117E+02  0.2469E+03
    -15.842  0.4113E+02  0.2475E+03
    -15.828  0.4106E+02  0.2481E+03
    -15.814  0.4096E+02  0.2486E+03
    -15.800  0.4084E+02  0.2492E+03
    -15.786  0.4069E+02  0.2498E+03
    -15.772  0.4053E+02  0.2503E+03
    -15.759  0.4035E+02  0.2509E+03
    -15.745  0.4016E+02  0.2514E+03
    -15.731  0.3997E+02  0.2520E+03
    -15.717  0.3978E+02  0.2525E+03
    -15.703  0.3959E+02  0.2531E+03
    -15.689  0.3940E+02  0.2536E+03
    -15.676  0.3923E+02  0.2542E+03
    -15.662  0.3907E+02  0.2547E+03
    -15.648  0.3892E+02  0.2553E+03
    -15.634  0.3879E+02  0.2558E+03
    -15.620  0.3867E+02  0.2563E+03
    -15.606  0.3857E+02  0.2569E+03
    -15.593  0.3848E+02  0.2574E+03
    -15.579  0.3840E+02  0.2579E+03
    -15.565  0.3833E+02  0.2585E+03
    -15.551  0.3827E+02  0.2590E+03
    -15.537  0.3821E+02  0.2595E+03
    -15.523  0.3815E+02  0.2600E+03
    -15.510  0.3810E+02  0.2606E+03
    -15.496  0.3803E+02  0.2611E+03
    -15.482  0.3797E+02  0.2616E+03
    -15.468  0.3789E+02  0.2621E+03
    -15.454  0.3780E+02  0.2627E+03
    -15.440  0.3770E+02  0.2632E+03
    -15.427  0.3758E+02  0.2637E+03
    -15.413  0.3746E+02  0.2642E+03
    -15.399  0.3731E+02  0.2647E+03
    -15.385  0.3716E+02  0.2653E+03
    -15.371  0.3700E+02  0.2658E+03
    -15.357  0.3682E+02  0.2663E+03
    -15.344  0.3665E+02  0.2668E+03
    -15.330  0.3647E+02  0.2673E+03
    -15.316  0.3630E+02  0.2678E+03
    -15.302  0.3613E+02  0.2683E+03
    -15.288  0.3598E+02  0.2688E+03
    -15.274  0.3585E+02  0.2693E+03
    -15.261  0.3574E+02  0.2698E+03
    -15.247  0.3565E+02  0.2703E+03
    -15.233  0.3561E+02  0.2708E+03
    -15.219  0.3559E+02  0.2713E+03
    -15.205  0.3562E+02  0.2717E+03
    -15.191  0.3568E+02  0.2722E+03
    -15.178  0.3579E+02  0.2727E+03
    -15.164  0.3594E+02  0.2732E+03
    -15.150  0.3612E+02  0.2737E+03
    -15.136  0.3634E+02  0.2742E+03
    -15.122  0.3660E+02  0.2747E+03
    -15.108  0.3689E+02  0.2753E+03
    -15.095  0.3720E+02  0.2758E+03
    -15.081  0.3754E+02  0.2763E+03
    -15.067  0.3789E+02  0.2768E+03
    -15.053  0.3826E+02  0.2773E+03
    -15.039  0.3864E+02  0.2779E+03
    -15.025  0.3902E+02  0.2784E+03
    -15.011  0.3941E+02  0.2790E+03
    -14.998  0.3981E+02  0.2795E+03
    -14.984  0.4020E+02  0.2801E+03
    -14.970  0.4059E+02  0.2806E+03
    -14.956  0.4099E+02  0.2812E+03
    -14.942  0.4138E+02  0.2818E+03
    -14.928  0.4177E+02  0.2823E+03
    -14.915  0.4216E+02  0.2829E+03
    -14.901  0.4254E+02  0.2835E+03
    -14.887  0.4293E+02  0.2841E+03
    -14.873  0.4331E+02  0.2847E+03
    -14.859  0.4369E+02  0.2853E+03
    -14.845  0.4406E+02  0.2859E+03
    -14.832  0.4442E+02  0.2865E+03
    -14.818  0.4476E+02  0.2872E+03
    -14.804  0.4510E+02  0.2878E+03
    -14.790  0.4541E+02  0.2884E+03
    -14.776  0.4569E+02  0.2890E+03
    -14.762  0.4595E+02  0.2897E+03
    -14.749  0.4618E+02  0.2903E+03
    -14.735  0.4637E+02  0.2910E+03
    -14.721  0.4652E+02  0.2916E+03
    -14.707  0.4664E+02  0.2923E+03
    -14.693  0.4671E+02  0.2929E+03
    -14.679  0.4675E+02  0.2935E+03
    -14.666  0.4675E+02  0.2942E+03
    -14.652  0.4672E+02  0.2948E+03
    -14.638  0.4666E+02  0.2955E+03
    -14.624  0.4657E+02  0.2961E+03
    -14.610  0.4645E+02  0.2968E+03
    -14.596  0.4632E+02  0.2974E+03
    -14.583  0.4618E+02  0.2981E+03
    -14.569  0.4603E+02  0.2987E+03
    -14.555  0.4587E+02  0.2993E+03
    -14.541  0.4571E+02  0.3000E+03
    -14.527  0.4556E+02  0.3006E+03
    -14.513  0.4541E+02  0.3012E+03
    -14.500  0.4526E+02  0.3018E+03
    -14.486  0.4512E+02  0.3025E+03
    -14.472  0.4499E+02  0.3031E+03
    -14.458  0.4486E+02  0.3037E+03
    -14.444  0.4473E+02  0.3043E+03
    -14.430  0.4461E+02  0.3049E+03
    -14.417  0.4449E+02  0.3056E+03
    -14.403  0.4437E+02  0.3062E+03
    -14.389  0.4425E+02  0.3068E+03
    -14.375  0.4413E+02  0.3074E+03
    -14.361  0.4401E+02  0.3080E+03
    -14.347  0.4389E+02  0.3086E+03
    -14.333  0.4376E+02  0.3092E+03
    -14.320  0.4363E+02  0.3098E+03
    -14.306  0.4351E+02  0.3104E+03
    -14.292  0.4339E+02  0.3110E+03
    -14.278  0.4326E+02  0.3116E+03
    -14.264  0.4315E+02  0.3122E+03
    -14.250  0.4303E+02  0.3128E+03
    -14.237  0.4293E+02  0.3134E+03
    -14.223  0.4282E+02  0.3140E+03
    -14.209  0.4273E+02  0.3146E+03
    -14.195  0.4264E+02  0.3152E+03
    -14.181  0.4256E+02  0.3158E+03
    -14.167  0.4248E+02  0.3164E+03
    -14.154  0.4241E+02  0.3169E+03
    -14.140  0.4234E+02  0.3175E+03
    -14.126  0.4229E+02  0.3181E+03
    -14.112  0.4223E+02  0.3187E+03
    -14.098  0.4218E+02  0.3193E+03
    -14.084  0.4214E+02  0.3199E+03
    -14.071  0.4210E+02  0.3205E+03
    -14.057  0.4207E+02  0.3210E+03
    -14.043  0.4204E+02  0.3216E+03
    -14.029  0.4202E+02  0.3222E+03
    -14.015  0.4200E+02  0.3228E+03
    -14.001  0.4199E+02  0.3234E+03
    -13.988  0.4199E+02  0.3239E+03
    -13.974  0.4199E+02  0.3245E+03
    -13.960  0.4199E+02  0.3251E+03
    -13.946  0.4200E+02  0.3257E+03
    -13.932  0.4201E+02  0.3263E+03
    -13.918  0.4201E+02  0.3268E+03
    -13.905  0.4201E+02  0.3274E+03
    -13.891  0.4200E+02  0.3280E+03
    -13.877  0.4198E+02  0.3286E+03
    -13.863  0.4195E+02  0.3292E+03
    -13.849  0.4189E+02  0.3297E+03
    -13.835  0.4181E+02  0.3303E+03
    -13.822  0.4172E+02  0.3309E+03
    -13.808  0.4159E+02  0.3315E+03
    -13.794  0.4144E+02  0.3321E+03
    -13.780  0.4127E+02  0.3326E+03
    -13.766  0.4108E+02  0.3332E+03
    -13.752  0.4087E+02  0.3338E+03
    -13.739  0.4064E+02  0.3343E+03
    -13.725  0.4041E+02  0.3349E+03
    -13.711  0.4017E+02  0.3354E+03
    -13.697  0.3995E+02  0.3360E+03
    -13.683  0.3973E+02  0.3365E+03
    -13.669  0.3953E+02  0.3371E+03
    -13.656  0.3936E+02  0.3376E+03
    -13.642  0.3922E+02  0.3382E+03
    -13.628  0.3912E+02  0.3387E+03
    -13.614  0.3906E+02  0.3393E+03
    -13.600  0.3904E+02  0.3398E+03
    -13.586  0.3907E+02  0.3403E+03
    -13.572  0.3914E+02  0.3409E+03
    -13.559  0.3926E+02  0.3414E+03
    -13.545  0.3942E+02  0.3420E+03
    -13.531  0.3961E+02  0.3425E+03
    -13.517  0.3984E+02  0.3431E+03
    -13.503  0.4009E+02  0.3436E+03
    -13.489  0.4036E+02  0.3442E+03
    -13.476  0.4065E+02  0.3447E+03
    -13.462  0.4093E+02  0.3453E+03
    -13.448  0.4122E+02  0.3459E+03
    -13.434  0.4151E+02  0.3464E+03
    -13.420  0.4178E+02  0.3470E+03
    -13.406  0.4203E+02  0.3476E+03
    -13.393  0.4227E+02  0.3482E+03
    -13.379  0.4249E+02  0.3488E+03
    -13.365  0.4269E+02  0.3494E+03
    -13.351  0.4286E+02  0.3500E+03
    -13.337  0.4301E+02  0.3506E+03
    -13.323  0.4314E+02  0.3512E+03
    -13.310  0.4326E+02  0.3518E+03
    -13.296  0.4335E+02  0.3524E+03
    -13.282  0.4344E+02  0.3530E+03
    -13.268  0.4351E+02  0.3536E+03
    -13.254  0.4357E+02  0.3542E+03
    -13.240  0.4363E+02  0.3548E+03
    -13.227  0.4368E+02  0.3554E+03
    -13.213  0.4372E+02  0.3560E+03
    -13.199  0.4376E+02  0.3566E+03
    -13.185  0.4380E+02  0.3572E+03
    -13.171  0.4382E+02  0.3578E+03
    -13.157  0.4384E+02  0.3584E+03
    -13.144  0.4385E+02  0.3590E+03
    -13.130  0.4384E+02  0.3596E+03
    -13.116  0.4382E+02  0.3602E+03
    -13.102  0.4378E+02  0.3608E+03
    -13.088  0.4372E+02  0.3614E+03
    -13.074  0.4365E+02  0.3620E+03
    -13.061  0.4355E+02  0.3626E+03
    -13.047  0.4344E+02  0.3632E+03
    -13.033  0.4331E+02  0.3638E+03
    -13.019  0.4317E+02  0.3644E+03
    -13.005  0.4302E+02  0.3650E+03
    -12.991  0.4286E+02  0.3656E+03
    -12.978  0.4272E+02  0.3662E+03
    -12.964  0.4258E+02  0.3668E+03
    -12.950  0.4246E+02  0.3674E+03
    -12.936  0.4236E+02  0.3680E+03
    -12.922  0.4230E+02  0.3686E+03
    -12.908  0.4227E+02  0.3691E+03
    -12.894  0.4228E+02  0.3697E+03
    -12.881  0.4234E+02  0.3703E+03
    -12.867  0.4244E+02  0.3709E+03
    -12.853  0.4260E+02  0.3715E+03
    -12.839  0.4280E+02  0.3721E+03
    -12.825  0.4305E+02  0.3727E+03
    -12.811  0.4334E+02  0.3733E+03
    -12.798  0.4367E+02  0.3739E+03
    -12.784  0.4403E+02  0.3745E+03
    -12.770  0.4442E+02  0.3751E+03