 191 191   0   0
  0.2633094E+02  0.2556000E-08  0.1967610E-08  0.1000000E-08  0.5000000E-15
  1.000000000000000E-004
  CAR 
 unknown system                          
      6.37191567    -22.81270509 2000     -1.31933632      1.00000000
    -22.813  0.0000E+00  0.0000E+00
    -22.798  0.0000E+00  0.0000E+00
    -22.784  0.0000E+00  0.0000E+00
    -22.769  0.0000E+00  0.0000E+00
    -22.754  0.0000E+00  0.0000E+00
    -22.740  0.0000E+00  0.0000E+00
    -22.725  0.0000E+00  0.0000E+00
    -22.711  0.0000E+00  0.0000E+00
    -22.696  0.0000E+00  0.0000E+00
    -22.681  0.0000E+00  0.0000E+00
    -22.667  0.0000E+00  0.0000E+00
    -22.652  0.0000E+00  0.0000E+00
    -22.638  0.0000E+00  0.0000E+00
    -22.623  0.0000E+00  0.0000E+00
    -22.608  0.0000E+00  0.0000E+00
    -22.594  0.0000E+00  0.0000E+00
    -22.579  0.0000E+00  0.0000E+00
    -22.565  0.0000E+00  0.0000E+00
    -22.550  0.0000E+00  0.0000E+00
    -22.535  0.0000E+00  0.0000E+00
    -22.521  0.0000E+00  0.0000E+00
    -22.506  0.0000E+00  0.0000E+00
    -22.492  0.0000E+00  0.0000E+00
    -22.477  0.0000E+00  0.0000E+00
    -22.462  0.0000E+00  0.0000E+00
    -22.448  0.0000E+00  0.0000E+00
    -22.433  0.0000E+00  0.0000E+00
    -22.419  0.0000E+00  0.0000E+00
    -22.404  0.0000E+00  0.0000E+00
    -22.389  0.0000E+00  0.0000E+00
    -22.375  0.0000E+00  0.0000E+00
    -22.360  0.0000E+00  0.0000E+00
    -22.346  0.0000E+00  0.0000E+00
    -22.331  0.0000E+00  0.0000E+00
    -22.316  0.0000E+00  0.0000E+00
    -22.302  0.0000E+00  0.0000E+00
    -22.287  0.0000E+00  0.0000E+00
    -22.273  0.0000E+00  0.0000E+00
    -22.258  0.0000E+00  0.0000E+00
    -22.243  0.0000E+00  0.0000E+00
    -22.229  0.0000E+00  0.0000E+00
    -22.214  0.0000E+00  0.0000E+00
    -22.200  0.0000E+00  0.0000E+00
    -22.185  0.0000E+00  0.0000E+00
    -22.170  0.0000E+00  0.0000E+00
    -22.156  0.0000E+00  0.0000E+00
    -22.141  0.0000E+00  0.0000E+00
    -22.127  0.0000E+00  0.0000E+00
    -22.112  0.0000E+00  0.0000E+00
    -22.097  0.0000E+00  0.0000E+00
    -22.083  0.0000E+00  0.0000E+00
    -22.068  0.0000E+00  0.0000E+00
    -22.054  0.0000E+00  0.0000E+00
    -22.039  0.0000E+00  0.0000E+00
    -22.024  0.0000E+00  0.0000E+00
    -22.010  0.0000E+00  0.0000E+00
    -21.995  0.8449E-15  0.1234E-16
    -21.981  0.1690E-14  0.3701E-16
    -21.966  0.3380E-14  0.8635E-16
    -21.951  0.6760E-14  0.1850E-15
    -21.937  0.2197E-13  0.5058E-15
    -21.922  0.4732E-13  0.1197E-14
    -21.908  0.1039E-12  0.2714E-14
    -21.893  0.2366E-12  0.6168E-14
    -21.878  0.5332E-12  0.1395E-13
    -21.864  0.1172E-11  0.3106E-13
    -21.849  0.2547E-11  0.6824E-13
    -21.835  0.5496E-11  0.1485E-12
    -21.820  0.1173E-10  0.3197E-12
    -21.805  0.2476E-10  0.6812E-12
    -21.791  0.5176E-10  0.1437E-11
    -21.776  0.1071E-09  0.3000E-11
    -21.762  0.2191E-09  0.6199E-11
    -21.747  0.4439E-09  0.1268E-10
    -21.732  0.8898E-09  0.2567E-10
    -21.718  0.1765E-08  0.5144E-10
    -21.703  0.3465E-08  0.1020E-09
    -21.689  0.6732E-08  0.2003E-09
    -21.674  0.1294E-07  0.3893E-09
    -21.659  0.2463E-07  0.7489E-09
    -21.645  0.4638E-07  0.1426E-08
    -21.630  0.8644E-07  0.2688E-08
    -21.616  0.1594E-06  0.5015E-08
    -21.601  0.2910E-06  0.9264E-08
    -21.586  0.5257E-06  0.1694E-07
    -21.572  0.9399E-06  0.3066E-07
    -21.557  0.1663E-05  0.5494E-07
    -21.543  0.2912E-05  0.9746E-07
    -21.528  0.5048E-05  0.1712E-06
    -21.513  0.8659E-05  0.2976E-06
    -21.499  0.1470E-04  0.5122E-06
    -21.484  0.2471E-04  0.8729E-06
    -21.470  0.4109E-04  0.1473E-05
    -21.455  0.6765E-04  0.2460E-05
    -21.440  0.1102E-03  0.4070E-05
    -21.426  0.1778E-03  0.6665E-05
    -21.411  0.2838E-03  0.1081E-04
    -21.397  0.4484E-03  0.1735E-04
    -21.382  0.7014E-03  0.2759E-04
    -21.367  0.1086E-02  0.4345E-04
    -21.353  0.1664E-02  0.6775E-04
    -21.338  0.2525E-02  0.1046E-03
    -21.324  0.3792E-02  0.1600E-03
    -21.309  0.5639E-02  0.2423E-03
    -21.294  0.8299E-02  0.3635E-03
    -21.280  0.1209E-01  0.5400E-03
    -21.265  0.1745E-01  0.7948E-03
    -21.251  0.2492E-01  0.1159E-02
    -21.236  0.3524E-01  0.1673E-02
    -21.221  0.4935E-01  0.2394E-02
    -21.207  0.6842E-01  0.3393E-02
    -21.192  0.9393E-01  0.4764E-02
    -21.178  0.1277E+00  0.6628E-02
    -21.163  0.1719E+00  0.9138E-02
    -21.148  0.2292E+00  0.1248E-01
    -21.134  0.3027E+00  0.1690E-01
    -21.119  0.3958E+00  0.2268E-01
    -21.105  0.5128E+00  0.3017E-01
    -21.090  0.6580E+00  0.3978E-01
    -21.075  0.8363E+00  0.5199E-01
    -21.061  0.1053E+01  0.6736E-01
    -21.046  0.1314E+01  0.8655E-01
    -21.032  0.1624E+01  0.1103E+00
    -21.017  0.1990E+01  0.1393E+00
    -21.002  0.2416E+01  0.1746E+00
    -20.988  0.2907E+01  0.2170E+00
    -20.973  0.3467E+01  0.2676E+00
    -20.959  0.4098E+01  0.3275E+00
    -20.944  0.4804E+01  0.3976E+00
    -20.929  0.5584E+01  0.4791E+00
    -20.915  0.6437E+01  0.5731E+00
    -20.900  0.7359E+01  0.6805E+00
    -20.886  0.8346E+01  0.8024E+00
    -20.871  0.9392E+01  0.9395E+00
    -20.856  0.1049E+02  0.1093E+01
    -20.842  0.1163E+02  0.1262E+01
    -20.827  0.1279E+02  0.1449E+01
    -20.813  0.1398E+02  0.1653E+01
    -20.798  0.1517E+02  0.1875E+01
    -20.783  0.1636E+02  0.2113E+01
    -20.769  0.1752E+02  0.2369E+01
    -20.754  0.1866E+02  0.2642E+01
    -20.740  0.1976E+02  0.2930E+01
    -20.725  0.2080E+02  0.3234E+01
    -20.710  0.2179E+02  0.3552E+01
    -20.696  0.2272E+02  0.3884E+01
    -20.681  0.2357E+02  0.4228E+01
    -20.667  0.2435E+02  0.4583E+01
    -20.652  0.2506E+02  0.4949E+01
    -20.637  0.2570E+02  0.5324E+01
    -20.623  0.2626E+02  0.5708E+01
    -20.608  0.2676E+02  0.6099E+01
    -20.594  0.2719E+02  0.6496E+01
    -20.579  0.2756E+02  0.6898E+01
    -20.564  0.2788E+02  0.7305E+01
    -20.550  0.2814E+02  0.7716E+01
    -20.535  0.2837E+02  0.8130E+01
    -20.521  0.2855E+02  0.8547E+01
    -20.506  0.2870E+02  0.8966E+01
    -20.491  0.2882E+02  0.9387E+01
    -20.477  0.2892E+02  0.9809E+01
    -20.462  0.2900E+02  0.1023E+02
    -20.448  0.2907E+02  0.1066E+02
    -20.433  0.2913E+02  0.1108E+02
    -20.418  0.2917E+02  0.1151E+02
    -20.404  0.2921E+02  0.1193E+02
    -20.389  0.2925E+02  0.1236E+02
    -20.375  0.2927E+02  0.1279E+02
    -20.360  0.2930E+02  0.1322E+02
    -20.345  0.2932E+02  0.1364E+02
    -20.331  0.2933E+02  0.1407E+02
    -20.316  0.2935E+02  0.1450E+02
    -20.302  0.2935E+02  0.1493E+02
    -20.287  0.2936E+02  0.1536E+02
    -20.272  0.2936E+02  0.1579E+02
    -20.258  0.2935E+02  0.1622E+02
    -20.243  0.2935E+02  0.1664E+02
    -20.229  0.2934E+02  0.1707E+02
    -20.214  0.2934E+02  0.1750E+02
    -20.199  0.2933E+02  0.1793E+02
    -20.185  0.2933E+02  0.1836E+02
    -20.170  0.2933E+02  0.1879E+02
    -20.156  0.2934E+02  0.1921E+02
    -20.141  0.2935E+02  0.1964E+02
    -20.126  0.2936E+02  0.2007E+02
    -20.112  0.2938E+02  0.2050E+02
    -20.097  0.2940E+02  0.2093E+02
    -20.083  0.2942E+02  0.2136E+02
    -20.068  0.2944E+02  0.2179E+02
    -20.053  0.2946E+02  0.2222E+02
    -20.039  0.2947E+02  0.2265E+02
    -20.024  0.2948E+02  0.2308E+02
    -20.010  0.2948E+02  0.2351E+02
    -19.995  0.2947E+02  0.2394E+02
    -19.980  0.2945E+02  0.2437E+02
    -19.966  0.2943E+02  0.2480E+02
    -19.951  0.2939E+02  0.2523E+02
    -19.937  0.2936E+02  0.2566E+02
    -19.922  0.2932E+02  0.2609E+02
    -19.907  0.2928E+02  0.2651E+02
    -19.893  0.2925E+02  0.2694E+02
    -19.878  0.2922E+02  0.2737E+02
    -19.864  0.2921E+02  0.2779E+02
    -19.849  0.2921E+02  0.2822E+02
    -19.834  0.2922E+02  0.2865E+02
    -19.820  0.2925E+02  0.2907E+02
    -19.805  0.2930E+02  0.2950E+02
    -19.791  0.2936E+02  0.2993E+02
    -19.776  0.2944E+02  0.3036E+02
    -19.761  0.2953E+02  0.3079E+02
    -19.747  0.2962E+02  0.3122E+02
    -19.732  0.2972E+02  0.3166E+02
    -19.718  0.2981E+02  0.3209E+02
    -19.703  0.2989E+02  0.3253E+02
    -19.688  0.2995E+02  0.3296E+02
    -19.674  0.3000E+02  0.3340E+02
    -19.659  0.3001E+02  0.3384E+02
    -19.645  0.3001E+02  0.3428E+02
    -19.630  0.2997E+02  0.3472E+02
    -19.615  0.2991E+02  0.3515E+02
    -19.601  0.2982E+02  0.3559E+02
    -19.586  0.2971E+02  0.3602E+02
    -19.572  0.2959E+02  0.3645E+02
    -19.557  0.2946E+02  0.3688E+02
    -19.542  0.2933E+02  0.3731E+02
    -19.528  0.2921E+02  0.3774E+02
    -19.513  0.2910E+02  0.3816E+02
    -19.499  0.2901E+02  0.3859E+02
    -19.484  0.2896E+02  0.3901E+02
    -19.469  0.2893E+02  0.3943E+02
    -19.455  0.2894E+02  0.3985E+02
    -19.440  0.2898E+02  0.4028E+02
    -19.426  0.2906E+02  0.4070E+02
    -19.411  0.2917E+02  0.4113E+02
    -19.396  0.2930E+02  0.4156E+02
    -19.382  0.2945E+02  0.4199E+02
    -19.367  0.2961E+02  0.4242E+02
    -19.353  0.2977E+02  0.4285E+02
    -19.338  0.2994E+02  0.4329E+02
    -19.323  0.3009E+02  0.4373E+02
    -19.309  0.3022E+02  0.4417E+02
    -19.294  0.3033E+02  0.4461E+02
    -19.280  0.3041E+02  0.4506E+02
    -19.265  0.3046E+02  0.4550E+02
    -19.250  0.3048E+02  0.4595E+02
    -19.236  0.3046E+02  0.4639E+02
    -19.221  0.3041E+02  0.4684E+02
    -19.207  0.3032E+02  0.4728E+02
    -19.192  0.3021E+02  0.4772E+02
    -19.177  0.3007E+02  0.4816E+02
    -19.163  0.2991E+02  0.4859E+02
    -19.148  0.2975E+02  0.4903E+02
    -19.134  0.2958E+02  0.4946E+02
    -19.119  0.2941E+02  0.4989E+02
    -19.104  0.2926E+02  0.5032E+02
    -19.090  0.2913E+02  0.5074E+02
    -19.075  0.2902E+02  0.5117E+02
    -19.061  0.2895E+02  0.5159E+02
    -19.046  0.2891E+02  0.5201E+02
    -19.031  0.2891E+02  0.5243E+02
    -19.017  0.2894E+02  0.5286E+02
    -19.002  0.2902E+02  0.5328E+02
    -18.988  0.2914E+02  0.5370E+02
    -18.973  0.2928E+02  0.5413E+02
    -18.958  0.2945E+02  0.5456E+02
    -18.944  0.2964E+02  0.5499E+02
    -18.929  0.2984E+02  0.5543E+02
    -18.915  0.3004E+02  0.5587E+02
    -18.900  0.3023E+02  0.5631E+02
    -18.885  0.3040E+02  0.5675E+02
    -18.871  0.3056E+02  0.5720E+02
    -18.856  0.3068E+02  0.5765E+02
    -18.842  0.3077E+02  0.5810E+02
    -18.827  0.3083E+02  0.5855E+02
    -18.812  0.3085E+02  0.5900E+02
    -18.798  0.3084E+02  0.5945E+02
    -18.783  0.3080E+02  0.5990E+02
    -18.769  0.3073E+02  0.6035E+02
    -18.754  0.3064E+02  0.6079E+02
    -18.739  0.3053E+02  0.6124E+02
    -18.725  0.3041E+02  0.6168E+02
    -18.710  0.3029E+02  0.6213E+02
    -18.696  0.3016E+02  0.6257E+02
    -18.681  0.3004E+02  0.6300E+02
    -18.666  0.2992E+02  0.6344E+02
    -18.652  0.2980E+02  0.6388E+02
    -18.637  0.2970E+02  0.6431E+02
    -18.623  0.2960E+02  0.6474E+02
    -18.608  0.2952E+02  0.6517E+02
    -18.593  0.2944E+02  0.6560E+02
    -18.579  0.2936E+02  0.6603E+02
    -18.564  0.2930E+02  0.6646E+02
    -18.550  0.2924E+02  0.6689E+02
    -18.535  0.2919E+02  0.6731E+02
    -18.520  0.2916E+02  0.6774E+02
    -18.506  0.2914E+02  0.6816E+02
    -18.491  0.2914E+02  0.6859E+02
    -18.477  0.2916E+02  0.6901E+02
    -18.462  0.2920E+02  0.6944E+02
    -18.447  0.2928E+02  0.6987E+02
    -18.433  0.2938E+02  0.7030E+02
    -18.418  0.2951E+02  0.7073E+02
    -18.404  0.2967E+02  0.7116E+02
    -18.389  0.2987E+02  0.7160E+02
    -18.374  0.3008E+02  0.7204E+02
    -18.360  0.3032E+02  0.7248E+02
    -18.345  0.3057E+02  0.7293E+02
    -18.331  0.3083E+02  0.7338E+02
    -18.316  0.3108E+02  0.7383E+02
    -18.301  0.3132E+02  0.7429E+02
    -18.287  0.3154E+02  0.7475E+02
    -18.272  0.3172E+02  0.7521E+02
    -18.258  0.3186E+02  0.7568E+02
    -18.243  0.3195E+02  0.7614E+02
    -18.228  0.3199E+02  0.7661E+02
    -18.214  0.3197E+02  0.7708E+02
    -18.199  0.3188E+02  0.7754E+02
    -18.185  0.3174E+02  0.7800E+02
    -18.170  0.3154E+02  0.7847E+02
    -18.155  0.3130E+02  0.7892E+02
    -18.141  0.3101E+02  0.7938E+02
    -18.126  0.3069E+02  0.7982E+02
    -18.112  0.3036E+02  0.8027E+02
    -18.097  0.3001E+02  0.8070E+02
    -18.082  0.2967E+02  0.8114E+02
    -18.068  0.2935E+02  0.8157E+02
    -18.053  0.2906E+02  0.8199E+02
    -18.039  0.2881E+02  0.8241E+02
    -18.024  0.2861E+02  0.8283E+02
    -18.009  0.2846E+02  0.8324E+02
    -17.995  0.2838E+02  0.8366E+02
    -17.980  0.2836E+02  0.8407E+02
    -17.966  0.2841E+02  0.8449E+02
    -17.951  0.2851E+02  0.8490E+02
    -17.936  0.2868E+02  0.8532E+02
    -17.922  0.2890E+02  0.8574E+02
    -17.907  0.2916E+02  0.8617E+02
    -17.893  0.2947E+02  0.8660E+02
    -17.878  0.2980E+02  0.8704E+02
    -17.863  0.3014E+02  0.8748E+02
    -17.849  0.3050E+02  0.8792E+02
    -17.834  0.3085E+02  0.8837E+02
    -17.820  0.3118E+02  0.8883E+02
    -17.805  0.3150E+02  0.8929E+02
    -17.790  0.3178E+02  0.8975E+02
    -17.776  0.3202E+02  0.9022E+02
    -17.761  0.3222E+02  0.9069E+02
    -17.747  0.3238E+02  0.9116E+02
    -17.732  0.3249E+02  0.9164E+02
    -17.717  0.3254E+02  0.9211E+02
    -17.703  0.3255E+02  0.9259E+02
    -17.688  0.3252E+02  0.9306E+02
    -17.674  0.3244E+02  0.9353E+02
    -17.659  0.3232E+02  0.9401E+02
    -17.644  0.3217E+02  0.9448E+02
    -17.630  0.3199E+02  0.9494E+02
    -17.615  0.3179E+02  0.9541E+02
    -17.601  0.3156E+02  0.9587E+02
    -17.586  0.3132E+02  0.9632E+02
    -17.571  0.3106E+02  0.9678E+02
    -17.557  0.3080E+02  0.9723E+02
    -17.542  0.3053E+02  0.9767E+02
    -17.528  0.3026E+02  0.9812E+02
    -17.513  0.2999E+02  0.9855E+02
    -17.498  0.2973E+02  0.9899E+02
    -17.484  0.2949E+02  0.9942E+02
    -17.469  0.2926E+02  0.9985E+02
    -17.455  0.2907E+02  0.1003E+03
    -17.440  0.2890E+02  0.1007E+03
    -17.425  0.2877E+02  0.1011E+03
    -17.411  0.2869E+02  0.1015E+03
    -17.396  0.2867E+02  0.1019E+03
    -17.382  0.2870E+02  0.1024E+03
    -17.367  0.2879E+02  0.1028E+03
    -17.352  0.2894E+02  0.1032E+03
    -17.338  0.2915E+02  0.1036E+03
    -17.323  0.2943E+02  0.1041E+03
    -17.309  0.2975E+02  0.1045E+03
    -17.294  0.3012E+02  0.1049E+03
    -17.279  0.3053E+02  0.1054E+03
    -17.265  0.3095E+02  0.1058E+03
    -17.250  0.3139E+02  0.1063E+03
    -17.236  0.3182E+02  0.1068E+03
    -17.221  0.3223E+02  0.1072E+03
    -17.206  0.3261E+02  0.1077E+03
    -17.192  0.3295E+02  0.1082E+03
    -17.177  0.3322E+02  0.1087E+03
    -17.163  0.3344E+02  0.1092E+03
    -17.148  0.3358E+02  0.1097E+03
    -17.133  0.3364E+02  0.1101E+03
    -17.119  0.3363E+02  0.1106E+03
    -17.104  0.3355E+02  0.1111E+03
    -17.090  0.3340E+02  0.1116E+03
    -17.075  0.3320E+02  0.1121E+03
    -17.060  0.3294E+02  0.1126E+03
    -17.046  0.3265E+02  0.1131E+03
    -17.031  0.3234E+02  0.1135E+03
    -17.017  0.3202E+02  0.1140E+03
    -17.002  0.3170E+02  0.1145E+03
    -16.987  0.3139E+02  0.1149E+03
    -16.973  0.3111E+02  0.1154E+03
    -16.958  0.3087E+02  0.1158E+03
    -16.944  0.3066E+02  0.1163E+03
    -16.929  0.3050E+02  0.1167E+03
    -16.914  0.3039E+02  0.1172E+03
    -16.900  0.3032E+02  0.1176E+03
    -16.885  0.3030E+02  0.1180E+03
    -16.871  0.3032E+02  0.1185E+03
    -16.856  0.3037E+02  0.1189E+03
    -16.841  0.3045E+02  0.1194E+03
    -16.827  0.3055E+02  0.1198E+03
    -16.812  0.3065E+02  0.1203E+03
    -16.798  0.3076E+02  0.1207E+03
    -16.783  0.3086E+02  0.1212E+03
    -16.768  0.3095E+02  0.1216E+03
    -16.754  0.3103E+02  0.1221E+03
    -16.739  0.3109E+02  0.1225E+03
    -16.725  0.3112E+02  0.1230E+03
    -16.710  0.3114E+02  0.1234E+03
    -16.695  0.3114E+02  0.1239E+03
    -16.681  0.3113E+02  0.1243E+03
    -16.666  0.3111E+02  0.1248E+03
    -16.652  0.3110E+02  0.1252E+03
    -16.637  0.3109E+02  0.1257E+03
    -16.622  0.3109E+02  0.1262E+03
    -16.608  0.3112E+02  0.1266E+03
    -16.593  0.3117E+02  0.1271E+03
    -16.579  0.3126E+02  0.1275E+03
    -16.564  0.3138E+02  0.1280E+03
    -16.549  0.3154E+02  0.1284E+03
    -16.535  0.3175E+02  0.1289E+03
    -16.520  0.3199E+02  0.1294E+03
    -16.506  0.3226E+02  0.1298E+03
    -16.491  0.3257E+02  0.1303E+03
    -16.476  0.3290E+02  0.1308E+03
    -16.462  0.3324E+02  0.1313E+03
    -16.447  0.3359E+02  0.1318E+03
    -16.433  0.3393E+02  0.1323E+03
    -16.418  0.3425E+02  0.1328E+03
    -16.403  0.3455E+02  0.1333E+03
    -16.389  0.3481E+02  0.1338E+03
    -16.374  0.3502E+02  0.1343E+03
    -16.360  0.3518E+02  0.1348E+03
    -16.345  0.3527E+02  0.1353E+03
    -16.330  0.3530E+02  0.1358E+03
    -16.316  0.3526E+02  0.1364E+03
    -16.301  0.3515E+02  0.1369E+03
    -16.287  0.3498E+02  0.1374E+03
    -16.272  0.3475E+02  0.1379E+03
    -16.257  0.3447E+02  0.1384E+03
    -16.243  0.3414E+02  0.1389E+03
    -16.228  0.3377E+02  0.1394E+03
    -16.214  0.3338E+02  0.1399E+03
    -16.199  0.3298E+02  0.1403E+03
    -16.184  0.3258E+02  0.1408E+03
    -16.170  0.3220E+02  0.1413E+03
    -16.155  0.3183E+02  0.1418E+03
    -16.141  0.3151E+02  0.1422E+03
    -16.126  0.3123E+02  0.1427E+03
    -16.111  0.3101E+02  0.1431E+03
    -16.097  0.3085E+02  0.1436E+03
    -16.082  0.3077E+02  0.1440E+03
    -16.068  0.3076E+02  0.1445E+03
    -16.053  0.3083E+02  0.1449E+03
    -16.038  0.3099E+02  0.1454E+03
    -16.024  0.3122E+02  0.1458E+03
    -16.009  0.3154E+02  0.1463E+03
    -15.995  0.3193E+02  0.1468E+03
    -15.980  0.3239E+02  0.1472E+03
    -15.965  0.3291E+02  0.1477E+03
    -15.951  0.3348E+02  0.1482E+03
    -15.936  0.3409E+02  0.1487E+03
    -15.922  0.3474E+02  0.1492E+03
    -15.907  0.3539E+02  0.1497E+03
    -15.892  0.3605E+02  0.1503E+03
    -15.878  0.3670E+02  0.1508E+03
    -15.863  0.3732E+02  0.1513E+03
    -15.849  0.3791E+02  0.1519E+03
    -15.834  0.3846E+02  0.1524E+03
    -15.819  0.3897E+02  0.1530E+03
    -15.805  0.3942E+02  0.1536E+03
    -15.790  0.3981E+02  0.1542E+03
    -15.776  0.4015E+02  0.1548E+03
    -15.761  0.4043E+02  0.1553E+03
    -15.746  0.4066E+02  0.1559E+03
    -15.732  0.4084E+02  0.1565E+03
    -15.717  0.4098E+02  0.1571E+03
    -15.703  0.4107E+02  0.1577E+03
    -15.688  0.4114E+02  0.1583E+03
    -15.673  0.4117E+02  0.1589E+03
    -15.659  0.4116E+02  0.1595E+03
    -15.644  0.4113E+02  0.1601E+03
    -15.630  0.4106E+02  0.1607E+03
    -15.615  0.4096E+02  0.1613E+03
    -15.600  0.4082E+02  0.1619E+03
    -15.586  0.4062E+02  0.1625E+03
    -15.571  0.4037E+02  0.1631E+03
    -15.557  0.4006E+02  0.1637E+03
    -15.542  0.3968E+02  0.1643E+03
    -15.527  0.3923E+02  0.1649E+03
    -15.513  0.3869E+02  0.1654E+03
    -15.498  0.3808E+02  0.1660E+03
    -15.484  0.3739E+02  0.1665E+03
    -15.469  0.3663E+02  0.1671E+03
    -15.455  0.3580E+02  0.1676E+03
    -15.440  0.3491E+02  0.1681E+03
    -15.425  0.3398E+02  0.1686E+03
    -15.411  0.3303E+02  0.1691E+03
    -15.396  0.3208E+02  0.1695E+03
    -15.382  0.3114E+02  0.1700E+03
    -15.367  0.3023E+02  0.1704E+03
    -15.352  0.2937E+02  0.1709E+03
    -15.338  0.2858E+02  0.1713E+03
    -15.323  0.2788E+02  0.1717E+03
    -15.309  0.2727E+02  0.1721E+03
    -15.294  0.2677E+02  0.1725E+03
    -15.279  0.2638E+02  0.1729E+03
    -15.265  0.2610E+02  0.1732E+03
    -15.250  0.2592E+02  0.1736E+03
    -15.236  0.2584E+02  0.1740E+03
    -15.221  0.2583E+02  0.1744E+03
    -15.206  0.2589E+02  0.1747E+03
    -15.192  0.2598E+02  0.1751E+03
    -15.177  0.2611E+02  0.1755E+03
    -15.163  0.2623E+02  0.1759E+03
    -15.148  0.2632E+02  0.1763E+03
    -15.133  0.2638E+02  0.1767E+03
    -15.119  0.2637E+02  0.1770E+03
    -15.104  0.2629E+02  0.1774E+03
    -15.090  0.2612E+02  0.1778E+03
    -15.075  0.2585E+02  0.1782E+03
    -15.060  0.2549E+02  0.1786E+03
    -15.046  0.2503E+02  0.1789E+03
    -15.031  0.2447E+02  0.1793E+03
    -15.017  0.2384E+02  0.1796E+03
    -15.002  0.2313E+02  0.1800E+03
    -14.987  0.2237E+02  0.1803E+03
    -14.973  0.2157E+02  0.1806E+03
    -14.958  0.2074E+02  0.1809E+03
    -14.944  0.1992E+02  0.1812E+03
    -14.929  0.1911E+02  0.1815E+03
    -14.914  0.1833E+02  0.1817E+03
    -14.900  0.1759E+02  0.1820E+03
    -14.885  0.1691E+02  0.1823E+03
    -14.871  0.1630E+02  0.1825E+03
    -14.856  0.1576E+02  0.1827E+03
    -14.841  0.1530E+02  0.1829E+03
    -14.827  0.1493E+02  0.1832E+03
    -14.812  0.1465E+02  0.1834E+03
    -14.798  0.1445E+02  0.1836E+03
    -14.783  0.1434E+02  0.1838E+03
    -14.768  0.1431E+02  0.1840E+03
    -14.754  0.1436E+02  0.1842E+03
    -14.739  0.1449E+02  0.1844E+03
    -14.725  0.1469E+02  0.1846E+03
    -14.710  0.1496E+02  0.1849E+03
    -14.695  0.1529E+02  0.1851E+03
    -14.681  0.1568E+02  0.1853E+03
    -14.666  0.1613E+02  0.1855E+03
    -14.652  0.1662E+02  0.1858E+03
    -14.637  0.1716E+02  0.1860E+03
    -14.622  0.1774E+02  0.1863E+03
    -14.608  0.1834E+02  0.1866E+03
    -14.593  0.1897E+02  0.1868E+03
    -14.579  0.1962E+02  0.1871E+03
    -14.564  0.2027E+02  0.1874E+03
    -14.549  0.2093E+02  0.1877E+03
    -14.535  0.2158E+02  0.1880E+03
    -14.520  0.2223E+02  0.1884E+03
    -14.506  0.2285E+02  0.1887E+03
    -14.491  0.2346E+02  0.1890E+03
    -14.476  0.2404E+02  0.1894E+03
    -14.462  0.2460E+02  0.1898E+03
    -14.447  0.2512E+02  0.1901E+03
    -14.433  0.2562E+02  0.1905E+03
    -14.418  0.2609E+02  0.1909E+03
    -14.403  0.2653E+02  0.1913E+03
    -14.389  0.2695E+02  0.1917E+03
    -14.374  0.2735E+02  0.1921E+03
    -14.360  0.2773E+02  0.1925E+03
    -14.345  0.2810E+02  0.1929E+03
    -14.330  0.2846E+02  0.1933E+03
    -14.316  0.2882E+02  0.1937E+03
    -14.301  0.2917E+02  0.1941E+03
    -14.287  0.2951E+02  0.1946E+03
    -14.272  0.2986E+02  0.1950E+03
    -14.257  0.3020E+02  0.1954E+03
    -14.243  0.3053E+02  0.1959E+03
    -14.228  0.3085E+02  0.1963E+03
    -14.214  0.3115E+02  0.1968E+03
    -14.199  0.3144E+02  0.1973E+03
    -14.184  0.3169E+02  0.1977E+03
    -14.170  0.3192E+02  0.1982E+03
    -14.155  0.3211E+02  0.1987E+03
    -14.141  0.3226E+02  0.1991E+03
    -14.126  0.3236E+02  0.1996E+03
    -14.111  0.3242E+02  0.2001E+03
    -14.097  0.3243E+02  0.2005E+03
    -14.082  0.3241E+02  0.2010E+03
    -14.068  0.3234E+02  0.2015E+03
    -14.053  0.3225E+02  0.2020E+03
    -14.038  0.3214E+02  0.2024E+03
    -14.024  0.3202E+02  0.2029E+03
    -14.009  0.3190E+02  0.2034E+03
    -13.995  0.3179E+02  0.2038E+03
    -13.980  0.3170E+02  0.2043E+03
    -13.965  0.3166E+02  0.2048E+03
    -13.951  0.3165E+02  0.2052E+03
    -13.936  0.3170E+02  0.2057E+03
    -13.922  0.3181E+02  0.2061E+03
    -13.907  0.3198E+02  0.2066E+03
    -13.892  0.3222E+02  0.2071E+03
    -13.878  0.3253E+02  0.2076E+03
    -13.863  0.3290E+02  0.2080E+03
    -13.849  0.3334E+02  0.2085E+03
    -13.834  0.3383E+02  0.2090E+03
    -13.819  0.3438E+02  0.2095E+03
    -13.805  0.3496E+02  0.2100E+03
    -13.790  0.3558E+02  0.2105E+03
    -13.776  0.3623E+02  0.2111E+03
    -13.761  0.3688E+02  0.2116E+03
    -13.746  0.3754E+02  0.2122E+03
    -13.732  0.3819E+02  0.2127E+03
    -13.717  0.3883E+02  0.2133E+03
    -13.703  0.3943E+02  0.2139E+03
    -13.688  0.4001E+02  0.2144E+03
    -13.673  0.4053E+02  0.2150E+03
    -13.659  0.4101E+02  0.2156E+03
    -13.644  0.4143E+02  0.2162E+03
    -13.630  0.4179E+02  0.2168E+03
    -13.615  0.4208E+02  0.2175E+03
    -13.600  0.4229E+02  0.2181E+03
    -13.586  0.4243E+02  0.2187E+03
    -13.571  0.4250E+02  0.2193E+03
    -13.557  0.4248E+02  0.2199E+03
    -13.542  0.4239E+02  0.2206E+03
    -13.527  0.4222E+02  0.2212E+03
    -13.513  0.4198E+02  0.2218E+03
    -13.498  0.4167E+02  0.2224E+03
    -13.484  0.4130E+02  0.2230E+03
    -13.469  0.4086E+02  0.2236E+03
    -13.454  0.4038E+02  0.2242E+03
    -13.440  0.3985E+02  0.2248E+03
    -13.425  0.3929E+02  0.2253E+03
    -13.411  0.3871E+02  0.2259E+03
    -13.396  0.3811E+02  0.2265E+03
    -13.381  0.3751E+02  0.2270E+03
    -13.367  0.3693E+02  0.2276E+03
    -13.352  0.3635E+02  0.2281E+03
    -13.338  0.3581E+02  0.2286E+03
    -13.323  0.3530E+02  0.2291E+03
    -13.308  0.3484E+02  0.2296E+03
    -13.294  0.3443E+02  0.2301E+03
    -13.279  0.3408E+02  0.2306E+03
    -13.265  0.3379E+02  0.2311E+03
    -13.250  0.3355E+02  0.2316E+03
    -13.235  0.3338E+02  0.2321E+03
    -13.221  0.3327E+02  0.2326E+03
    -13.206  0.3321E+02  0.2331E+03
    -13.192  0.3320E+02  0.2336E+03
    -13.177  0.3324E+02  0.2340E+03
    -13.162  0.3332E+02  0.2345E+03
    -13.148  0.3342E+02  0.2350E+03
    -13.133  0.3356E+02  0.2355E+03
    -13.119  0.3370E+02  0.2360E+03
    -13.104  0.3386E+02  0.2365E+03
    -13.089  0.3401E+02  0.2370E+03
    -13.075  0.3415E+02  0.2375E+03
    -13.060  0.3427E+02  0.2380E+03
    -13.046  0.3438E+02  0.2385E+03
    -13.031  0.3445E+02  0.2390E+03
    -13.016  0.3449E+02  0.2395E+03
    -13.002  0.3449E+02  0.2400E+03
    -12.987  0.3445E+02  0.2405E+03
    -12.973  0.3436E+02  0.2410E+03
    -12.958  0.3424E+02  0.2415E+03
    -12.943  0.3407E+02  0.2420E+03
    -12.929  0.3387E+02  0.2425E+03
    -12.914  0.3363E+02  0.2430E+03
    -12.900  0.3336E+02  0.2435E+03
    -12.885  0.3306E+02  0.2440E+03
    -12.870  0.3274E+02  0.2444E+03
    -12.856  0.3240E+02  0.2449E+03
    -12.841  0.3206E+02  0.2454E+03
    -12.827  0.3170E+02  0.2458E+03
    -12.812  0.3136E+02  0.2463E+03
    -12.797  0.3101E+02  0.2467E+03
    -12.783  0.3068E+02  0.2472E+03
    -12.768  0.3036E+02  0.2476E+03
    -12.754  0.3006E+02  0.2481E+03
    -12.739  0.2979E+02  0.2485E+03
    -12.724  0.2953E+02  0.2489E+03
    -12.710  0.2930E+02  0.2494E+03
    -12.695  0.2910E+02  0.2498E+03
    -12.681  0.2892E+02  0.2502E+03
    -12.666  0.2877E+02  0.2506E+03
    -12.651  0.2864E+02  0.2511E+03
    -12.637  0.2854E+02  0.2515E+03
    -12.622  0.2847E+02  0.2519E+03
    -12.608  0.2842E+02  0.2523E+03
    -12.593  0.2840E+02  0.2527E+03
    -12.578  0.2839E+02  0.2531E+03
    -12.564  0.2841E+02  0.2535E+03
    -12.549  0.2844E+02  0.2540E+03
    -12.535  0.2849E+02  0.2544E+03
    -12.520  0.2855E+02  0.2548E+03
    -12.505  0.2861E+02  0.2552E+03
    -12.491  0.2868E+02  0.2556E+03
    -12.476  0.2875E+02  0.2561E+03
    -12.462  0.2881E+02  0.2565E+03
    -12.447  0.2885E+02  0.2569E+03
    -12.432  0.2888E+02  0.2573E+03
    -12.418  0.2890E+02  0.2577E+03
    -12.403  0.2889E+02  0.2582E+03
    -12.389  0.2886E+02  0.2586E+03
    -12.374  0.2881E+02  0.2590E+03
    -12.359  0.2873E+02  0.2594E+03
    -12.345  0.2865E+02  0.2598E+03
    -12.330  0.2855E+02  0.2603E+03
    -12.316  0.2844E+02  0.2607E+03
    -12.301  0.2833E+02  0.2611E+03
    -12.286  0.2822E+02  0.2615E+03
    -12.272  0.2812E+02  0.2619E+03
    -12.257  0.2804E+02  0.2623E+03
    -12.243  0.2797E+02  0.2627E+03
    -12.228  0.2793E+02  0.2631E+03
    -12.213  0.2792E+02  0.2635E+03
    -12.199  0.2793E+02  0.2639E+03
    -12.184  0.2796E+02  0.2644E+03
    -12.170  0.2802E+02  0.2648E+03
    -12.155  0.2809E+02  0.2652E+03
    -12.140  0.2817E+02  0.2656E+03
    -12.126  0.2826E+02  0.2660E+03
    -12.111  0.2834E+02  0.2664E+03
    -12.097  0.2841E+02  0.2668E+03
    -12.082  0.2846E+02  0.2672E+03
    -12.067  0.2848E+02  0.2677E+03
    -12.053  0.2847E+02  0.2681E+03
    -12.038  0.2843E+02  0.2685E+03
    -12.024  0.2834E+02  0.2689E+03
    -12.009  0.2822E+02  0.2693E+03
    -11.994  0.2806E+02  0.2697E+03
    -11.980  0.2788E+02  0.2701E+03
    -11.965  0.2766E+02  0.2705E+03
    -11.951  0.2744E+02  0.2709E+03
    -11.936  0.2720E+02  0.2713E+03
    -11.921  0.2698E+02  0.2717E+03
    -11.907  0.2677E+02  0.2721E+03
    -11.892  0.2660E+02  0.2725E+03
    -11.878  0.2648E+02  0.2729E+03
    -11.863  0.2642E+02  0.2733E+03
    -11.848  0.2642E+02  0.2737E+03
    -11.834  0.2651E+02  0.2741E+03
    -11.819  0.2667E+02  0.2744E+03
    -11.805  0.2693E+02  0.2748E+03
    -11.790  0.2728E+02  0.2752E+03
    -11.775  0.2771E+02  0.2756E+03
    -11.761  0.2822E+02  0.2760E+03
    -11.746  0.2880E+02  0.2765E+03
    -11.732  0.2945E+02  0.2769E+03
    -11.717  0.3015E+02  0.2773E+03
    -11.702  0.3088E+02  0.2778E+03
    -11.688  0.3163E+02  0.2783E+03
    -11.673  0.3239E+02  0.2787E+03
    -11.659  0.3313E+02  0.2792E+03
    -11.644  0.3385E+02  0.2797E+03
    -11.629  0.3453E+02  0.2802E+03
    -11.615  0.3516E+02  0.2807E+03
    -11.600  0.3573E+02  0.2812E+03
    -11.586  0.3623E+02  0.2818E+03
    -11.571  0.3665E+02  0.2823E+03
    -11.556  0.3700E+02  0.2828E+03
    -11.542  0.3727E+02  0.2834E+03
    -11.527  0.3746E+02  0.2839E+03
    -11.513  0.3757E+02  0.2845E+03
    -11.498  0.3761E+02  0.2850E+03
    -11.483  0.3759E+02  0.2856E+03
    -11.469  0.3750E+02  0.2861E+03
    -11.454  0.3735E+02  0.2867E+03
    -11.440  0.3716E+02  0.2872E+03
    -11.425  0.3691E+02  0.2878E+03
    -11.410  0.3662E+02  0.2883E+03
    -11.396  0.3630E+02  0.2888E+03
    -11.381  0.3594E+02  0.2893E+03
    -11.367  0.3555E+02  0.2899E+03
    -11.352  0.3513E+02  0.2904E+03
    -11.337  0.3470E+02  0.2909E+03
    -11.323  0.3425E+02  0.2914E+03
    -11.308  0.3378E+02  0.2919E+03
    -11.294  0.3332E+02  0.2924E+03
    -11.279  0.3286E+02  0.2928E+03
    -11.264  0.3241E+02  0.2933E+03
    -11.250  0.3199E+02  0.2938E+03
    -11.235  0.3160E+02  0.2942E+03
    -11.221  0.3125E+02  0.2947E+03
    -11.206  0.3095E+02  0.2952E+03
    -11.191  0.3073E+02  0.2956E+03
    -11.177  0.3057E+02  0.2961E+03
    -11.162  0.3050E+02  0.2965E+03
    -11.148  0.3051E+02  0.2969E+03
    -11.133  0.3062E+02  0.2974E+03
    -11.118  0.3082E+02  0.2978E+03
    -11.104  0.3112E+02  0.2983E+03
    -11.089  0.3150E+02  0.2988E+03
    -11.075  0.3198E+02  0.2992E+03
    -11.060  0.3252E+02  0.2997E+03
    -11.045  0.3313E+02  0.3002E+03
    -11.031  0.3379E+02  0.3007E+03
    -11.016  0.3449E+02  0.3012E+03
    -11.002  0.3521E+02  0.3017E+03
    -10.987  0.3594E+02  0.3022E+03
    -10.972  0.3665E+02  0.3027E+03
    -10.958  0.3733E+02  0.3033E+03
    -10.943  0.3797E+02  0.3038E+03
    -10.929  0.3855E+02  0.3044E+03
    -10.914  0.3906E+02  0.3050E+03
    -10.899  0.3948E+02  0.3056E+03
    -10.885  0.3983E+02  0.3061E+03
    -10.870  0.4008E+02  0.3067E+03
    -10.856  0.4023E+02  0.3073E+03
    -10.841  0.4030E+02  0.3079E+03
    -10.826  0.4027E+02  0.3085E+03
    -10.812  0.4016E+02  0.3091E+03
    -10.797  0.3997E+02  0.3097E+03
    -10.783  0.3971E+02  0.3102E+03
    -10.768  0.3939E+02  0.3108E+03