 168 168   0   0
  0.5174827E+02  0.2376285E-08  0.1829265E-08  0.2000000E-08  0.5000000E-15
  1.000000000000000E-004
  CAR 
 unknown system                          
      3.09130773    -24.30233018 2000     -3.88581063      1.00000000
    -24.302  0.0000E+00  0.0000E+00
    -24.289  0.0000E+00  0.0000E+00
    -24.275  0.0000E+00  0.0000E+00
    -24.261  0.0000E+00  0.0000E+00
    -24.248  0.0000E+00  0.0000E+00
    -24.234  0.0000E+00  0.0000E+00
    -24.220  0.0000E+00  0.0000E+00
    -24.206  0.0000E+00  0.0000E+00
    -24.193  0.0000E+00  0.0000E+00
    -24.179  0.0000E+00  0.0000E+00
    -24.165  0.0000E+00  0.0000E+00
    -24.152  0.0000E+00  0.0000E+00
    -24.138  0.0000E+00  0.0000E+00
    -24.124  0.0000E+00  0.0000E+00
    -24.110  0.0000E+00  0.0000E+00
    -24.097  0.0000E+00  0.0000E+00
    -24.083  0.0000E+00  0.0000E+00
    -24.069  0.0000E+00  0.0000E+00
    -24.056  0.0000E+00  0.0000E+00
    -24.042  0.0000E+00  0.0000E+00
    -24.028  0.0000E+00  0.0000E+00
    -24.015  0.0000E+00  0.0000E+00
    -24.001  0.0000E+00  0.0000E+00
    -23.987  0.0000E+00  0.0000E+00
    -23.973  0.0000E+00  0.0000E+00
    -23.960  0.0000E+00  0.0000E+00
    -23.946  0.0000E+00  0.0000E+00
    -23.932  0.0000E+00  0.0000E+00
    -23.919  0.0000E+00  0.0000E+00
    -23.905  0.0000E+00  0.0000E+00
    -23.891  0.0000E+00  0.0000E+00
    -23.878  0.0000E+00  0.0000E+00
    -23.864  0.0000E+00  0.0000E+00
    -23.850  0.0000E+00  0.0000E+00
    -23.836  0.0000E+00  0.0000E+00
    -23.823  0.0000E+00  0.0000E+00
    -23.809  0.0000E+00  0.0000E+00
    -23.795  0.0000E+00  0.0000E+00
    -23.782  0.0000E+00  0.0000E+00
    -23.768  0.0000E+00  0.0000E+00
    -23.754  0.0000E+00  0.0000E+00
    -23.740  0.0000E+00  0.0000E+00
    -23.727  0.0000E+00  0.0000E+00
    -23.713  0.0000E+00  0.0000E+00
    -23.699  0.0000E+00  0.0000E+00
    -23.686  0.0000E+00  0.0000E+00
    -23.672  0.0000E+00  0.0000E+00
    -23.658  0.0000E+00  0.0000E+00
    -23.645  0.0000E+00  0.0000E+00
    -23.631  0.0000E+00  0.0000E+00
    -23.617  0.0000E+00  0.0000E+00
    -23.603  0.0000E+00  0.0000E+00
    -23.590  0.0000E+00  0.0000E+00
    -23.576  0.0000E+00  0.0000E+00
    -23.562  0.0000E+00  0.0000E+00
    -23.549  0.0000E+00  0.0000E+00
    -23.535  0.0000E+00  0.0000E+00
    -23.521  0.0000E+00  0.0000E+00
    -23.508  0.0000E+00  0.0000E+00
    -23.494  0.0000E+00  0.0000E+00
    -23.480  0.2701E-14  0.3701E-16
    -23.466  0.6301E-14  0.1234E-15
    -23.453  0.1080E-13  0.2714E-15
    -23.439  0.2340E-13  0.5921E-15
    -23.425  0.5221E-13  0.1308E-14
    -23.412  0.1161E-12  0.2899E-14
    -23.398  0.2503E-12  0.6328E-14
    -23.384  0.5239E-12  0.1351E-13
    -23.370  0.1115E-11  0.2879E-13
    -23.357  0.2323E-11  0.6063E-13
    -23.343  0.4808E-11  0.1265E-12
    -23.329  0.9853E-11  0.2615E-12
    -23.316  0.2002E-10  0.5359E-12
    -23.302  0.4028E-10  0.1088E-11
    -23.288  0.8032E-10  0.2189E-11
    -23.275  0.1586E-09  0.4363E-11
    -23.261  0.3104E-09  0.8616E-11
    -23.247  0.6018E-09  0.1686E-10
    -23.233  0.1156E-08  0.3270E-10
    -23.220  0.2199E-08  0.6284E-10
    -23.206  0.4146E-08  0.1196E-09
    -23.192  0.7743E-08  0.2257E-09
    -23.179  0.1433E-07  0.4221E-09
    -23.165  0.2626E-07  0.7820E-09
    -23.151  0.4770E-07  0.1436E-08
    -23.138  0.8583E-07  0.2612E-08
    -23.124  0.1530E-06  0.4709E-08
    -23.110  0.2703E-06  0.8413E-08
    -23.096  0.4730E-06  0.1489E-07
    -23.083  0.8201E-06  0.2613E-07
    -23.069  0.1409E-05  0.4544E-07
    -23.055  0.2398E-05  0.7829E-07
    -23.042  0.4043E-05  0.1337E-06
    -23.028  0.6754E-05  0.2263E-06
    -23.014  0.1118E-04  0.3795E-06
    -23.000  0.1834E-04  0.6308E-06
    -22.987  0.2980E-04  0.1039E-05
    -22.973  0.4798E-04  0.1697E-05
    -22.959  0.7654E-04  0.2745E-05
    -22.946  0.1210E-03  0.4403E-05
    -22.932  0.1895E-03  0.7000E-05
    -22.918  0.2941E-03  0.1103E-04
    -22.905  0.4522E-03  0.1723E-04
    -22.891  0.6889E-03  0.2667E-04
    -22.877  0.1040E-02  0.4092E-04
    -22.863  0.1556E-02  0.6225E-04
    -22.850  0.2307E-02  0.9386E-04
    -22.836  0.3389E-02  0.1403E-03
    -22.822  0.4933E-02  0.2079E-03
    -22.809  0.7115E-02  0.3054E-03
    -22.795  0.1017E-01  0.4448E-03
    -22.781  0.1441E-01  0.6422E-03
    -22.768  0.2023E-01  0.9194E-03
    -22.754  0.2814E-01  0.1305E-02
    -22.740  0.3880E-01  0.1837E-02
    -22.726  0.5303E-01  0.2564E-02
    -22.713  0.7182E-01  0.3548E-02
    -22.699  0.9642E-01  0.4869E-02
    -22.685  0.1283E+00  0.6627E-02
    -22.672  0.1692E+00  0.8946E-02
    -22.658  0.2212E+00  0.1198E-01
    -22.644  0.2867E+00  0.1591E-01
    -22.630  0.3683E+00  0.2095E-01
    -22.617  0.4690E+00  0.2738E-01
    -22.603  0.5923E+00  0.3550E-01
    -22.589  0.7415E+00  0.4566E-01
    -22.576  0.9205E+00  0.5827E-01
    -22.562  0.1133E+01  0.7380E-01
    -22.548  0.1383E+01  0.9275E-01
    -22.535  0.1675E+01  0.1157E+00
    -22.521  0.2011E+01  0.1433E+00
    -22.507  0.2395E+01  0.1761E+00
    -22.493  0.2830E+01  0.2149E+00
    -22.480  0.3318E+01  0.2603E+00
    -22.466  0.3861E+01  0.3133E+00
    -22.452  0.4457E+01  0.3743E+00
    -22.439  0.5107E+01  0.4443E+00
    -22.425  0.5810E+01  0.5239E+00
    -22.411  0.6562E+01  0.6139E+00
    -22.398  0.7359E+01  0.7147E+00
    -22.384  0.8197E+01  0.8270E+00
    -22.370  0.9070E+01  0.9513E+00
    -22.356  0.9972E+01  0.1088E+01
    -22.343  0.1090E+02  0.1237E+01
    -22.329  0.1183E+02  0.1399E+01
    -22.315  0.1278E+02  0.1575E+01
    -22.302  0.1372E+02  0.1763E+01
    -22.288  0.1465E+02  0.1963E+01
    -22.274  0.1557E+02  0.2177E+01
    -22.260  0.1646E+02  0.2402E+01
    -22.247  0.1732E+02  0.2640E+01
    -22.233  0.1814E+02  0.2888E+01
    -22.219  0.1892E+02  0.3148E+01
    -22.206  0.1965E+02  0.3417E+01
    -22.192  0.2032E+02  0.3695E+01
    -22.178  0.2093E+02  0.3982E+01
    -22.165  0.2148E+02  0.4276E+01
    -22.151  0.2196E+02  0.4577E+01
    -22.137  0.2236E+02  0.4884E+01
    -22.123  0.2269E+02  0.5195E+01
    -22.110  0.2294E+02  0.5509E+01
    -22.096  0.2312E+02  0.5826E+01
    -22.082  0.2321E+02  0.6144E+01
    -22.069  0.2323E+02  0.6462E+01
    -22.055  0.2318E+02  0.6780E+01
    -22.041  0.2307E+02  0.7096E+01
    -22.028  0.2289E+02  0.7410E+01
    -22.014  0.2265E+02  0.7720E+01
    -22.000  0.2238E+02  0.8027E+01
    -21.986  0.2207E+02  0.8329E+01
    -21.973  0.2174E+02  0.8627E+01
    -21.959  0.2139E+02  0.8920E+01
    -21.945  0.2105E+02  0.9209E+01
    -21.932  0.2072E+02  0.9493E+01
    -21.918  0.2041E+02  0.9772E+01
    -21.904  0.2013E+02  0.1005E+02
    -21.890  0.1989E+02  0.1032E+02
    -21.877  0.1969E+02  0.1059E+02
    -21.863  0.1955E+02  0.1086E+02
    -21.849  0.1946E+02  0.1113E+02
    -21.836  0.1942E+02  0.1139E+02
    -21.822  0.1944E+02  0.1166E+02
    -21.808  0.1950E+02  0.1192E+02
    -21.795  0.1961E+02  0.1219E+02
    -21.781  0.1975E+02  0.1246E+02
    -21.767  0.1992E+02  0.1274E+02
    -21.753  0.2012E+02  0.1301E+02
    -21.740  0.2033E+02  0.1329E+02
    -21.726  0.2055E+02  0.1357E+02
    -21.712  0.2076E+02  0.1386E+02
    -21.699  0.2096E+02  0.1414E+02
    -21.685  0.2115E+02  0.1443E+02
    -21.671  0.2132E+02  0.1473E+02
    -21.658  0.2146E+02  0.1502E+02
    -21.644  0.2158E+02  0.1532E+02
    -21.630  0.2166E+02  0.1561E+02
    -21.616  0.2173E+02  0.1591E+02
    -21.603  0.2176E+02  0.1621E+02
    -21.589  0.2178E+02  0.1651E+02
    -21.575  0.2179E+02  0.1681E+02
    -21.562  0.2178E+02  0.1711E+02
    -21.548  0.2177E+02  0.1740E+02
    -21.534  0.2176E+02  0.1770E+02
    -21.520  0.2176E+02  0.1800E+02
    -21.507  0.2178E+02  0.1830E+02
    -21.493  0.2181E+02  0.1860E+02
    -21.479  0.2187E+02  0.1890E+02
    -21.466  0.2196E+02  0.1920E+02
    -21.452  0.2207E+02  0.1950E+02
    -21.438  0.2221E+02  0.1980E+02
    -21.425  0.2238E+02  0.2011E+02
    -21.411  0.2257E+02  0.2042E+02
    -21.397  0.2278E+02  0.2073E+02
    -21.383  0.2301E+02  0.2105E+02
    -21.370  0.2325E+02  0.2137E+02
    -21.356  0.2350E+02  0.2169E+02
    -21.342  0.2374E+02  0.2201E+02
    -21.329  0.2399E+02  0.2234E+02
    -21.315  0.2422E+02  0.2267E+02
    -21.301  0.2444E+02  0.2301E+02
    -21.288  0.2464E+02  0.2335E+02
    -21.274  0.2482E+02  0.2369E+02
    -21.260  0.2498E+02  0.2403E+02
    -21.246  0.2511E+02  0.2437E+02
    -21.233  0.2521E+02  0.2472E+02
    -21.219  0.2529E+02  0.2507E+02
    -21.205  0.2535E+02  0.2541E+02
    -21.192  0.2538E+02  0.2576E+02
    -21.178  0.2539E+02  0.2611E+02
    -21.164  0.2537E+02  0.2646E+02
    -21.150  0.2534E+02  0.2680E+02
    -21.137  0.2528E+02  0.2715E+02
    -21.123  0.2522E+02  0.2750E+02
    -21.109  0.2514E+02  0.2784E+02
    -21.096  0.2505E+02  0.2818E+02
    -21.082  0.2495E+02  0.2853E+02
    -21.068  0.2485E+02  0.2887E+02
    -21.055  0.2474E+02  0.2921E+02
    -21.041  0.2464E+02  0.2954E+02
    -21.027  0.2454E+02  0.2988E+02
    -21.013  0.2444E+02  0.3021E+02
    -21.000  0.2435E+02  0.3055E+02
    -20.986  0.2427E+02  0.3088E+02
    -20.972  0.2419E+02  0.3121E+02
    -20.959  0.2413E+02  0.3154E+02
    -20.945  0.2407E+02  0.3187E+02
    -20.931  0.2401E+02  0.3220E+02
    -20.918  0.2396E+02  0.3253E+02
    -20.904  0.2392E+02  0.3286E+02
    -20.890  0.2387E+02  0.3318E+02
    -20.876  0.2382E+02  0.3351E+02
    -20.863  0.2377E+02  0.3384E+02
    -20.849  0.2371E+02  0.3416E+02
    -20.835  0.2365E+02  0.3449E+02
    -20.822  0.2358E+02  0.3481E+02
    -20.808  0.2350E+02  0.3513E+02
    -20.794  0.2342E+02  0.3545E+02
    -20.780  0.2333E+02  0.3577E+02
    -20.767  0.2325E+02  0.3609E+02
    -20.753  0.2317E+02  0.3641E+02
    -20.739  0.2310E+02  0.3672E+02
    -20.726  0.2304E+02  0.3704E+02
    -20.712  0.2299E+02  0.3736E+02
    -20.698  0.2298E+02  0.3767E+02
    -20.685  0.2299E+02  0.3798E+02
    -20.671  0.2303E+02  0.3830E+02
    -20.657  0.2310E+02  0.3862E+02
    -20.643  0.2322E+02  0.3894E+02
    -20.630  0.2337E+02  0.3926E+02
    -20.616  0.2357E+02  0.3958E+02
    -20.602  0.2380E+02  0.3990E+02
    -20.589  0.2407E+02  0.4023E+02
    -20.575  0.2438E+02  0.4057E+02
    -20.561  0.2472E+02  0.4091E+02
    -20.548  0.2509E+02  0.4125E+02
    -20.534  0.2548E+02  0.4160E+02
    -20.520  0.2589E+02  0.4196E+02
    -20.506  0.2632E+02  0.4232E+02
    -20.493  0.2675E+02  0.4268E+02
    -20.479  0.2718E+02  0.4305E+02
    -20.465  0.2761E+02  0.4343E+02
    -20.452  0.2803E+02  0.4382E+02
    -20.438  0.2843E+02  0.4421E+02
    -20.424  0.2881E+02  0.4460E+02
    -20.410  0.2916E+02  0.4500E+02
    -20.397  0.2947E+02  0.4541E+02
    -20.383  0.2975E+02  0.4581E+02
    -20.369  0.2997E+02  0.4622E+02
    -20.356  0.3015E+02  0.4664E+02
    -20.342  0.3028E+02  0.4705E+02
    -20.328  0.3035E+02  0.4747E+02
    -20.315  0.3036E+02  0.4788E+02
    -20.301  0.3032E+02  0.4830E+02
    -20.287  0.3021E+02  0.4871E+02
    -20.273  0.3005E+02  0.4912E+02
    -20.260  0.2984E+02  0.4953E+02
    -20.246  0.2958E+02  0.4994E+02
    -20.232  0.2928E+02  0.5034E+02
    -20.219  0.2895E+02  0.5074E+02
    -20.205  0.2859E+02  0.5113E+02
    -20.191  0.2822E+02  0.5152E+02
    -20.178  0.2783E+02  0.5190E+02
    -20.164  0.2745E+02  0.5227E+02
    -20.150  0.2707E+02  0.5264E+02
    -20.136  0.2671E+02  0.5301E+02
    -20.123  0.2637E+02  0.5337E+02
    -20.109  0.2606E+02  0.5373E+02
    -20.095  0.2578E+02  0.5408E+02
    -20.082  0.2552E+02  0.5443E+02
    -20.068  0.2530E+02  0.5478E+02
    -20.054  0.2511E+02  0.5512E+02
    -20.040  0.2495E+02  0.5546E+02
    -20.027  0.2481E+02  0.5580E+02
    -20.013  0.2468E+02  0.5614E+02
    -19.999  0.2457E+02  0.5648E+02
    -19.986  0.2447E+02  0.5681E+02
    -19.972  0.2437E+02  0.5715E+02
    -19.958  0.2427E+02  0.5748E+02
    -19.945  0.2416E+02  0.5781E+02
    -19.931  0.2404E+02  0.5814E+02
    -19.917  0.2391E+02  0.5847E+02
    -19.903  0.2377E+02  0.5880E+02
    -19.890  0.2362E+02  0.5912E+02
    -19.876  0.2346E+02  0.5944E+02
    -19.862  0.2329E+02  0.5976E+02
    -19.849  0.2312E+02  0.6008E+02
    -19.835  0.2296E+02  0.6039E+02
    -19.821  0.2280E+02  0.6070E+02
    -19.808  0.2266E+02  0.6101E+02
    -19.794  0.2253E+02  0.6132E+02
    -19.780  0.2241E+02  0.6163E+02
    -19.766  0.2233E+02  0.6194E+02
    -19.753  0.2226E+02  0.6224E+02
    -19.739  0.2222E+02  0.6255E+02
    -19.725  0.2220E+02  0.6285E+02
    -19.712  0.2220E+02  0.6315E+02
    -19.698  0.2222E+02  0.6346E+02
    -19.684  0.2226E+02  0.6376E+02
    -19.670  0.2231E+02  0.6407E+02
    -19.657  0.2237E+02  0.6438E+02
    -19.643  0.2244E+02  0.6468E+02
    -19.629  0.2250E+02  0.6499E+02
    -19.616  0.2257E+02  0.6530E+02
    -19.602  0.2263E+02  0.6561E+02
    -19.588  0.2269E+02  0.6592E+02
    -19.575  0.2275E+02  0.6623E+02
    -19.561  0.2280E+02  0.6655E+02
    -19.547  0.2285E+02  0.6686E+02
    -19.533  0.2291E+02  0.6717E+02
    -19.520  0.2297E+02  0.6749E+02
    -19.506  0.2304E+02  0.6780E+02
    -19.492  0.2312E+02  0.6812E+02
    -19.479  0.2322E+02  0.6844E+02
    -19.465  0.2333E+02  0.6876E+02
    -19.451  0.2347E+02  0.6908E+02
    -19.438  0.2362E+02  0.6940E+02
    -19.424  0.2380E+02  0.6973E+02
    -19.410  0.2398E+02  0.7006E+02
    -19.396  0.2418E+02  0.7039E+02
    -19.383  0.2439E+02  0.7072E+02
    -19.369  0.2460E+02  0.7106E+02
    -19.355  0.2480E+02  0.7140E+02
    -19.342  0.2500E+02  0.7174E+02
    -19.328  0.2518E+02  0.7209E+02
    -19.314  0.2534E+02  0.7244E+02
    -19.300  0.2548E+02  0.7279E+02
    -19.287  0.2559E+02  0.7314E+02
    -19.273  0.2568E+02  0.7349E+02
    -19.259  0.2573E+02  0.7384E+02
    -19.246  0.2577E+02  0.7419E+02
    -19.232  0.2579E+02  0.7455E+02
    -19.218  0.2579E+02  0.7490E+02
    -19.205  0.2578E+02  0.7525E+02
    -19.191  0.2578E+02  0.7561E+02
    -19.177  0.2578E+02  0.7596E+02
    -19.163  0.2580E+02  0.7631E+02
    -19.150  0.2583E+02  0.7667E+02
    -19.136  0.2589E+02  0.7702E+02
    -19.122  0.2599E+02  0.7738E+02
    -19.109  0.2612E+02  0.7774E+02
    -19.095  0.2628E+02  0.7810E+02
    -19.081  0.2648E+02  0.7846E+02
    -19.068  0.2671E+02  0.7883E+02
    -19.054  0.2697E+02  0.7919E+02
    -19.040  0.2726E+02  0.7957E+02
    -19.026  0.2756E+02  0.7995E+02
    -19.013  0.2787E+02  0.8033E+02
    -18.999  0.2819E+02  0.8071E+02
    -18.985  0.2850E+02  0.8110E+02
    -18.972  0.2879E+02  0.8150E+02
    -18.958  0.2907E+02  0.8190E+02
    -18.944  0.2931E+02  0.8230E+02
    -18.930  0.2952E+02  0.8270E+02
    -18.917  0.2969E+02  0.8311E+02
    -18.903  0.2981E+02  0.8352E+02
    -18.889  0.2989E+02  0.8393E+02
    -18.876  0.2992E+02  0.8434E+02
    -18.862  0.2991E+02  0.8475E+02
    -18.848  0.2985E+02  0.8516E+02
    -18.835  0.2975E+02  0.8557E+02
    -18.821  0.2963E+02  0.8597E+02
    -18.807  0.2948E+02  0.8638E+02
    -18.793  0.2930E+02  0.8678E+02
    -18.780  0.2912E+02  0.8718E+02
    -18.766  0.2893E+02  0.8757E+02
    -18.752  0.2875E+02  0.8797E+02
    -18.739  0.2858E+02  0.8836E+02
    -18.725  0.2842E+02  0.8875E+02
    -18.711  0.2828E+02  0.8914E+02
    -18.698  0.2816E+02  0.8952E+02
    -18.684  0.2806E+02  0.8991E+02
    -18.670  0.2799E+02  0.9029E+02
    -18.656  0.2794E+02  0.9067E+02
    -18.643  0.2792E+02  0.9105E+02
    -18.629  0.2791E+02  0.9144E+02
    -18.615  0.2792E+02  0.9182E+02
    -18.602  0.2795E+02  0.9220E+02
    -18.588  0.2798E+02  0.9259E+02
    -18.574  0.2802E+02  0.9297E+02
    -18.560  0.2806E+02  0.9335E+02
    -18.547  0.2811E+02  0.9374E+02
    -18.533  0.2815E+02  0.9413E+02
    -18.519  0.2819E+02  0.9451E+02
    -18.506  0.2822E+02  0.9490E+02
    -18.492  0.2825E+02  0.9529E+02
    -18.478  0.2827E+02  0.9567E+02
    -18.465  0.2828E+02  0.9606E+02
    -18.451  0.2828E+02  0.9645E+02
    -18.437  0.2828E+02  0.9684E+02
    -18.423  0.2828E+02  0.9722E+02
    -18.410  0.2827E+02  0.9761E+02
    -18.396  0.2825E+02  0.9800E+02
    -18.382  0.2822E+02  0.9838E+02
    -18.369  0.2818E+02  0.9877E+02
    -18.355  0.2813E+02  0.9916E+02
    -18.341  0.2808E+02  0.9954E+02
    -18.328  0.2801E+02  0.9992E+02
    -18.314  0.2793E+02  0.1003E+03
    -18.300  0.2783E+02  0.1007E+03
    -18.286  0.2772E+02  0.1011E+03
    -18.273  0.2759E+02  0.1014E+03
    -18.259  0.2744E+02  0.1018E+03
    -18.245  0.2729E+02  0.1022E+03
    -18.232  0.2712E+02  0.1026E+03
    -18.218  0.2694E+02  0.1029E+03
    -18.204  0.2675E+02  0.1033E+03
    -18.190  0.2656E+02  0.1037E+03
    -18.177  0.2637E+02  0.1040E+03
    -18.163  0.2619E+02  0.1044E+03
    -18.149  0.2602E+02  0.1047E+03
    -18.136  0.2586E+02  0.1051E+03
    -18.122  0.2572E+02  0.1055E+03
    -18.108  0.2561E+02  0.1058E+03
    -18.095  0.2552E+02  0.1062E+03
    -18.081  0.2546E+02  0.1065E+03
    -18.067  0.2544E+02  0.1068E+03
    -18.053  0.2544E+02  0.1072E+03
    -18.040  0.2548E+02  0.1075E+03
    -18.026  0.2554E+02  0.1079E+03
    -18.012  0.2564E+02  0.1082E+03
    -17.999  0.2577E+02  0.1086E+03
    -17.985  0.2592E+02  0.1090E+03
    -17.971  0.2610E+02  0.1093E+03
    -17.958  0.2630E+02  0.1097E+03
    -17.944  0.2652E+02  0.1100E+03
    -17.930  0.2676E+02  0.1104E+03
    -17.916  0.2702E+02  0.1108E+03
    -17.903  0.2729E+02  0.1111E+03
    -17.889  0.2758E+02  0.1115E+03
    -17.875  0.2788E+02  0.1119E+03
    -17.862  0.2819E+02  0.1123E+03
    -17.848  0.2851E+02  0.1127E+03
    -17.834  0.2884E+02  0.1131E+03
    -17.820  0.2918E+02  0.1135E+03
    -17.807  0.2952E+02  0.1139E+03
    -17.793  0.2985E+02  0.1143E+03
    -17.779  0.3018E+02  0.1147E+03
    -17.766  0.3050E+02  0.1151E+03
    -17.752  0.3081E+02  0.1155E+03
    -17.738  0.3109E+02  0.1160E+03
    -17.725  0.3135E+02  0.1164E+03
    -17.711  0.3158E+02  0.1168E+03
    -17.697  0.3177E+02  0.1173E+03
    -17.683  0.3192E+02  0.1177E+03
    -17.670  0.3203E+02  0.1181E+03
    -17.656  0.3209E+02  0.1186E+03
    -17.642  0.3210E+02  0.1190E+03
    -17.629  0.3205E+02  0.1195E+03
    -17.615  0.3196E+02  0.1199E+03
    -17.601  0.3182E+02  0.1203E+03
    -17.588  0.3163E+02  0.1208E+03
    -17.574  0.3140E+02  0.1212E+03
    -17.560  0.3114E+02  0.1216E+03
    -17.546  0.3084E+02  0.1221E+03
    -17.533  0.3051E+02  0.1225E+03
    -17.519  0.3017E+02  0.1229E+03
    -17.505  0.2981E+02  0.1233E+03
    -17.492  0.2945E+02  0.1237E+03
    -17.478  0.2909E+02  0.1241E+03
    -17.464  0.2874E+02  0.1245E+03
    -17.450  0.2840E+02  0.1249E+03
    -17.437  0.2808E+02  0.1253E+03
    -17.423  0.2779E+02  0.1256E+03
    -17.409  0.2752E+02  0.1260E+03
    -17.396  0.2728E+02  0.1264E+03
    -17.382  0.2707E+02  0.1268E+03
    -17.368  0.2689E+02  0.1271E+03
    -17.355  0.2675E+02  0.1275E+03
    -17.341  0.2664E+02  0.1279E+03
    -17.327  0.2657E+02  0.1282E+03
    -17.313  0.2652E+02  0.1286E+03
    -17.300  0.2651E+02  0.1290E+03
    -17.286  0.2654E+02  0.1293E+03
    -17.272  0.2659E+02  0.1297E+03
    -17.259  0.2667E+02  0.1301E+03
    -17.245  0.2678E+02  0.1304E+03
    -17.231  0.2691E+02  0.1308E+03
    -17.218  0.2707E+02  0.1312E+03
    -17.204  0.2725E+02  0.1315E+03
    -17.190  0.2745E+02  0.1319E+03
    -17.176  0.2767E+02  0.1323E+03
    -17.163  0.2789E+02  0.1327E+03
    -17.149  0.2813E+02  0.1331E+03
    -17.135  0.2838E+02  0.1334E+03
    -17.122  0.2862E+02  0.1338E+03
    -17.108  0.2886E+02  0.1342E+03
    -17.094  0.2910E+02  0.1346E+03
    -17.080  0.2933E+02  0.1350E+03
    -17.067  0.2954E+02  0.1354E+03
    -17.053  0.2973E+02  0.1358E+03
    -17.039  0.2991E+02  0.1363E+03
    -17.026  0.3006E+02  0.1367E+03
    -17.012  0.3019E+02  0.1371E+03
    -16.998  0.3029E+02  0.1375E+03
    -16.985  0.3037E+02  0.1379E+03
    -16.971  0.3042E+02  0.1383E+03
    -16.957  0.3044E+02  0.1387E+03
    -16.943  0.3043E+02  0.1392E+03
    -16.930  0.3039E+02  0.1396E+03
    -16.916  0.3032E+02  0.1400E+03
    -16.902  0.3023E+02  0.1404E+03
    -16.889  0.3011E+02  0.1408E+03
    -16.875  0.2996E+02  0.1412E+03
    -16.861  0.2978E+02  0.1416E+03
    -16.848  0.2959E+02  0.1420E+03
    -16.834  0.2936E+02  0.1424E+03
    -16.820  0.2912E+02  0.1428E+03
    -16.806  0.2886E+02  0.1432E+03
    -16.793  0.2859E+02  0.1436E+03
    -16.779  0.2830E+02  0.1440E+03
    -16.765  0.2800E+02  0.1444E+03
    -16.752  0.2770E+02  0.1448E+03
    -16.738  0.2739E+02  0.1452E+03
    -16.724  0.2709E+02  0.1455E+03
    -16.710  0.2680E+02  0.1459E+03
    -16.697  0.2652E+02  0.1463E+03
    -16.683  0.2626E+02  0.1466E+03
    -16.669  0.2601E+02  0.1470E+03
    -16.656  0.2579E+02  0.1473E+03
    -16.642  0.2560E+02  0.1477E+03
    -16.628  0.2543E+02  0.1480E+03
    -16.615  0.2529E+02  0.1484E+03
    -16.601  0.2518E+02  0.1487E+03
    -16.587  0.2511E+02  0.1491E+03
    -16.573  0.2506E+02  0.1494E+03
    -16.560  0.2504E+02  0.1498E+03
    -16.546  0.2504E+02  0.1501E+03
    -16.532  0.2507E+02  0.1504E+03
    -16.519  0.2512E+02  0.1508E+03
    -16.505  0.2518E+02  0.1511E+03
    -16.491  0.2526E+02  0.1515E+03
    -16.478  0.2534E+02  0.1518E+03
    -16.464  0.2543E+02  0.1522E+03
    -16.450  0.2553E+02  0.1525E+03
    -16.436  0.2562E+02  0.1529E+03
    -16.423  0.2570E+02  0.1532E+03
    -16.409  0.2579E+02  0.1536E+03
    -16.395  0.2586E+02  0.1539E+03
    -16.382  0.2593E+02  0.1543E+03
    -16.368  0.2600E+02  0.1546E+03
    -16.354  0.2606E+02  0.1550E+03
    -16.340  0.2611E+02  0.1554E+03
    -16.327  0.2616E+02  0.1557E+03
    -16.313  0.2621E+02  0.1561E+03
    -16.299  0.2626E+02  0.1564E+03
    -16.286  0.2632E+02  0.1568E+03
    -16.272  0.2637E+02  0.1572E+03
    -16.258  0.2643E+02  0.1575E+03
    -16.245  0.2650E+02  0.1579E+03
    -16.231  0.2657E+02  0.1582E+03
    -16.217  0.2664E+02  0.1586E+03
    -16.203  0.2671E+02  0.1590E+03
    -16.190  0.2679E+02  0.1593E+03
    -16.176  0.2686E+02  0.1597E+03
    -16.162  0.2692E+02  0.1601E+03
    -16.149  0.2697E+02  0.1605E+03
    -16.135  0.2701E+02  0.1608E+03
    -16.121  0.2704E+02  0.1612E+03
    -16.108  0.2705E+02  0.1616E+03
    -16.094  0.2703E+02  0.1619E+03
    -16.080  0.2700E+02  0.1623E+03
    -16.066  0.2694E+02  0.1627E+03
    -16.053  0.2686E+02  0.1630E+03
    -16.039  0.2676E+02  0.1634E+03
    -16.025  0.2665E+02  0.1638E+03
    -16.012  0.2652E+02  0.1641E+03
    -15.998  0.2638E+02  0.1645E+03
    -15.984  0.2624E+02  0.1649E+03
    -15.970  0.2610E+02  0.1652E+03
    -15.957  0.2595E+02  0.1656E+03
    -15.943  0.2582E+02  0.1659E+03
    -15.929  0.2569E+02  0.1663E+03
    -15.916  0.2558E+02  0.1666E+03
    -15.902  0.2549E+02  0.1670E+03
    -15.888  0.2541E+02  0.1673E+03
    -15.875  0.2535E+02  0.1677E+03
    -15.861  0.2531E+02  0.1680E+03
    -15.847  0.2529E+02  0.1684E+03
    -15.833  0.2528E+02  0.1687E+03
    -15.820  0.2528E+02  0.1691E+03
    -15.806  0.2529E+02  0.1694E+03
    -15.792  0.2531E+02  0.1698E+03
    -15.779  0.2534E+02  0.1701E+03
    -15.765  0.2537E+02  0.1704E+03
    -15.751  0.2539E+02  0.1708E+03
    -15.738  0.2542E+02  0.1711E+03
    -15.724  0.2544E+02  0.1715E+03
    -15.710  0.2545E+02  0.1718E+03
    -15.696  0.2546E+02  0.1722E+03
    -15.683  0.2547E+02  0.1725E+03
    -15.669  0.2547E+02  0.1729E+03
    -15.655  0.2546E+02  0.1732E+03
    -15.642  0.2544E+02  0.1736E+03
    -15.628  0.2542E+02  0.1739E+03
    -15.614  0.2539E+02  0.1743E+03
    -15.600  0.2535E+02  0.1746E+03
    -15.587  0.2530E+02  0.1750E+03
    -15.573  0.2525E+02  0.1753E+03
    -15.559  0.2519E+02  0.1757E+03
    -15.546  0.2512E+02  0.1760E+03
    -15.532  0.2504E+02  0.1764E+03
    -15.518  0.2495E+02  0.1767E+03
    -15.505  0.2486E+02  0.1770E+03
    -15.491  0.2476E+02  0.1774E+03
    -15.477  0.2465E+02  0.1777E+03
    -15.463  0.2454E+02  0.1781E+03
    -15.450  0.2443E+02  0.1784E+03
    -15.436  0.2432E+02  0.1787E+03
    -15.422  0.2422E+02  0.1791E+03
    -15.409  0.2412E+02  0.1794E+03
    -15.395  0.2404E+02  0.1797E+03
    -15.381  0.2397E+02  0.1800E+03
    -15.368  0.2392E+02  0.1804E+03
    -15.354  0.2389E+02  0.1807E+03
    -15.340  0.2388E+02  0.1810E+03
    -15.326  0.2389E+02  0.1813E+03
    -15.313  0.2393E+02  0.1817E+03
    -15.299  0.2400E+02  0.1820E+03
    -15.285  0.2409E+02  0.1823E+03
    -15.272  0.2421E+02  0.1827E+03
    -15.258  0.2435E+02  0.1830E+03
    -15.244  0.2451E+02  0.1833E+03
    -15.231  0.2469E+02  0.1837E+03
    -15.217  0.2489E+02  0.1840E+03
    -15.203  0.2510E+02  0.1844E+03
    -15.189  0.2533E+02  0.1847E+03
    -15.176  0.2558E+02  0.1851E+03
    -15.162  0.2584E+02  0.1854E+03
    -15.148  0.2610E+02  0.1858E+03
    -15.135  0.2638E+02  0.1861E+03
    -15.121  0.2667E+02  0.1865E+03
    -15.107  0.2697E+02  0.1869E+03
    -15.093  0.2727E+02  0.1872E+03
    -15.080  0.2757E+02  0.1876E+03
    -15.066  0.2788E+02  0.1880E+03
    -15.052  0.2818E+02  0.1884E+03
    -15.039  0.2848E+02  0.1888E+03
    -15.025  0.2878E+02  0.1892E+03
    -15.011  0.2906E+02  0.1896E+03
    -14.998  0.2933E+02  0.1900E+03
    -14.984  0.2959E+02  0.1904E+03
    -14.970  0.2982E+02  0.1908E+03
    -14.956  0.3004E+02  0.1912E+03
    -14.943  0.3023E+02  0.1916E+03
    -14.929  0.3039E+02  0.1920E+03
    -14.915  0.3053E+02  0.1924E+03
    -14.902  0.3065E+02  0.1929E+03
    -14.888  0.3073E+02  0.1933E+03
    -14.874  0.3080E+02  0.1937E+03
    -14.861  0.3084E+02  0.1941E+03
    -14.847  0.3086E+02  0.1946E+03
    -14.833  0.3087E+02  0.1950E+03
    -14.819  0.3086E+02  0.1954E+03
    -14.806  0.3085E+02  0.1958E+03
    -14.792  0.3082E+02  0.1962E+03
    -14.778  0.3080E+02  0.1967E+03
    -14.765  0.3076E+02  0.1971E+03
    -14.751  0.3073E+02  0.1975E+03
    -14.737  0.3070E+02  0.1979E+03
    -14.723  0.3067E+02  0.1984E+03
    -14.710  0.3064E+02  0.1988E+03
    -14.696  0.3061E+02  0.1992E+03
    -14.682  0.3058E+02  0.1996E+03
    -14.669  0.3055E+02  0.2000E+03
    -14.655  0.3051E+02  0.2004E+03
    -14.641  0.3047E+02  0.2009E+03
    -14.628  0.3042E+02  0.2013E+03
    -14.614  0.3037E+02  0.2017E+03
    -14.600  0.3030E+02  0.2021E+03
    -14.586  0.3022E+02  0.2025E+03
    -14.573  0.3012E+02  0.2029E+03
    -14.559  0.3001E+02  0.2034E+03
    -14.545  0.2988E+02  0.2038E+03
    -14.532  0.2974E+02  0.2042E+03
    -14.518  0.2958E+02  0.2046E+03
    -14.504  0.2940E+02  0.2050E+03
    -14.491  0.2921E+02  0.2054E+03
    -14.477  0.2900E+02  0.2058E+03
    -14.463  0.2879E+02  0.2062E+03
    -14.449  0.2856E+02  0.2066E+03
    -14.436  0.2832E+02  0.2069E+03
    -14.422  0.2807E+02  0.2073E+03
    -14.408  0.2783E+02  0.2077E+03
    -14.395  0.2758E+02  0.2081E+03
    -14.381  0.2734E+02  0.2085E+03
    -14.367  0.2711E+02  0.2088E+03
    -14.353  0.2689E+02  0.2092E+03
    -14.340  0.2669E+02  0.2096E+03
    -14.326  0.2651E+02  0.2099E+03
    -14.312  0.2636E+02  0.2103E+03
    -14.299  0.2623E+02  0.2107E+03
    -14.285  0.2614E+02  0.2110E+03
    -14.271  0.2608E+02  0.2114E+03
    -14.258  0.2606E+02  0.2117E+03
    -14.244  0.2607E+02  0.2121E+03
    -14.230  0.2612E+02  0.2124E+03
    -14.216  0.2620E+02  0.2128E+03
    -14.203  0.2632E+02  0.2132E+03
    -14.189  0.2646E+02  0.2135E+03
    -14.175  0.2664E+02  0.2139E+03
    -14.162  0.2683E+02  0.2143E+03
    -14.148  0.2704E+02  0.2146E+03
    -14.134  0.2727E+02  0.2150E+03
    -14.121  0.2750E+02  0.2154E+03
    -14.107  0.2773E+02  0.2158E+03
    -14.093  0.2796E+02  0.2161E+03
    -14.079  0.2818E+02  0.2165E+03
    -14.066  0.2839E+02  0.2169E+03
    -14.052  0.2857E+02  0.2173E+03
    -14.038  0.2873E+02  0.2177E+03
    -14.025  0.2885E+02  0.2181E+03
    -14.011  0.2894E+02  0.2185E+03
    -13.997  0.2900E+02  0.2189E+03
    -13.983  0.2901E+02  0.2193E+03
    -13.970  0.2898E+02  0.2197E+03
    -13.956  0.2890E+02  0.2201E+03
    -13.942  0.2877E+02  0.2205E+03
    -13.929  0.2860E+02  0.2209E+03
    -13.915  0.2839E+02  0.2213E+03
    -13.901  0.2813E+02  0.2216E+03
    -13.888  0.2783E+02  0.2220E+03
    -13.874  0.2750E+02  0.2224E+03
    -13.860  0.2714E+02  0.2228E+03
    -13.846  0.2675E+02  0.2231E+03
    -13.833  0.2635E+02  0.2235E+03
    -13.819  0.2594E+02  0.2239E+03
    -13.805  0.2554E+02  0.2242E+03
    -13.792  0.2514E+02  0.2246E+03
    -13.778  0.2477E+02  0.2249E+03
    -13.764  0.2442E+02  0.2252E+03
    -13.751  0.2412E+02  0.2256E+03
    -13.737  0.2386E+02  0.2259E+03
    -13.723  0.2366E+02  0.2262E+03
    -13.709  0.2352E+02  0.2265E+03
    -13.696  0.2345E+02  0.2269E+03
    -13.682  0.2346E+02  0.2272E+03
    -13.668  0.2353E+02  0.2275E+03
    -13.655  0.2368E+02  0.2278E+03
    -13.641  0.2390E+02  0.2281E+03
    -13.627  0.2418E+02  0.2285E+03
    -13.613  0.2452E+02  0.2288E+03
    -13.600  0.2491E+02  0.2292E+03
    -13.586  0.2534E+02  0.2295E+03
    -13.572  0.2581E+02  0.2299E+03
    -13.559  0.2629E+02  0.2302E+03
    -13.545  0.2679E+02  0.2306E+03
    -13.531  0.2728E+02  0.2310E+03
    -13.518  0.2776E+02  0.2313E+03
    -13.504  0.2822E+02  0.2317E+03
    -13.490  0.2865E+02  0.2321E+03
    -13.476  0.2905E+02  0.2325E+03
    -13.463  0.2940E+02  0.2329E+03
    -13.449  0.2972E+02  0.2333E+03
    -13.435  0.2998E+02  0.2337E+03
    -13.422  0.3021E+02  0.2342E+03
    -13.408  0.3039E+02  0.2346E+03
    -13.394  0.3053E+02  0.2350E+03
    -13.381  0.3064E+02  0.2354E+03
    -13.367  0.3072E+02  0.2358E+03
    -13.353  0.3078E+02  0.2362E+03
    -13.339  0.3082E+02  0.2367E+03
    -13.326  0.3085E+02  0.2371E+03
    -13.312  0.3088E+02  0.2375E+03
    -13.298  0.3091E+02  0.2379E+03
    -13.285  0.3095E+02  0.2384E+03
    -13.271  0.3100E+02  0.2388E+03
    -13.257  0.3106E+02  0.2392E+03
    -13.243  0.3113E+02  0.2396E+03
    -13.230  0.3123E+02  0.2401E+03
    -13.216  0.3134E+02  0.2405E+03
    -13.202  0.3146E+02  0.2409E+03
    -13.189  0.3160E+02  0.2414E+03
    -13.175  0.3175E+02  0.2418E+03
    -13.161  0.3191E+02  0.2422E+03
    -13.148  0.3208E+02  0.2427E+03
    -13.134  0.3225E+02  0.2431E+03
    -13.120  0.3242E+02  0.2436E+03
    -13.106  0.3258E+02  0.2440E+03
    -13.093  0.3274E+02  0.2445E+03
    -13.079  0.3289E+02  0.2449E+03
    -13.065  0.3303E+02  0.2454E+03
    -13.052  0.3316E+02  0.2458E+03
    -13.038  0.3328E+02  0.2463E+03
    -13.024  0.3337E+02  0.2467E+03
    -13.011  0.3346E+02  0.2472E+03
    -12.997  0.3352E+02  0.2476E+03