 154 154   0   0
  0.5341225E+02  0.2471000E-08  0.1664405E-08  0.2000000E-08  0.5000000E-15
  1.000000000000000E-004
  CAR 
 unknown system                          
      3.23234468    -24.41671226 2000     -3.86243377      1.00000000
    -24.417  0.0000E+00  0.0000E+00
    -24.403  0.0000E+00  0.0000E+00
    -24.389  0.0000E+00  0.0000E+00
    -24.375  0.0000E+00  0.0000E+00
    -24.361  0.0000E+00  0.0000E+00
    -24.348  0.0000E+00  0.0000E+00
    -24.334  0.0000E+00  0.0000E+00
    -24.320  0.0000E+00  0.0000E+00
    -24.306  0.0000E+00  0.0000E+00
    -24.292  0.0000E+00  0.0000E+00
    -24.278  0.0000E+00  0.0000E+00
    -24.265  0.0000E+00  0.0000E+00
    -24.251  0.0000E+00  0.0000E+00
    -24.237  0.0000E+00  0.0000E+00
    -24.223  0.0000E+00  0.0000E+00
    -24.209  0.0000E+00  0.0000E+00
    -24.195  0.0000E+00  0.0000E+00
    -24.182  0.0000E+00  0.0000E+00
    -24.168  0.0000E+00  0.0000E+00
    -24.154  0.0000E+00  0.0000E+00
    -24.140  0.0000E+00  0.0000E+00
    -24.126  0.0000E+00  0.0000E+00
    -24.112  0.0000E+00  0.0000E+00
    -24.099  0.0000E+00  0.0000E+00
    -24.085  0.0000E+00  0.0000E+00
    -24.071  0.0000E+00  0.0000E+00
    -24.057  0.0000E+00  0.0000E+00
    -24.043  0.0000E+00  0.0000E+00
    -24.029  0.0000E+00  0.0000E+00
    -24.016  0.0000E+00  0.0000E+00
    -24.002  0.0000E+00  0.0000E+00
    -23.988  0.0000E+00  0.0000E+00
    -23.974  0.0000E+00  0.0000E+00
    -23.960  0.0000E+00  0.0000E+00
    -23.946  0.0000E+00  0.0000E+00
    -23.933  0.0000E+00  0.0000E+00
    -23.919  0.0000E+00  0.0000E+00
    -23.905  0.0000E+00  0.0000E+00
    -23.891  0.0000E+00  0.0000E+00
    -23.877  0.0000E+00  0.0000E+00
    -23.863  0.0000E+00  0.0000E+00
    -23.850  0.0000E+00  0.0000E+00
    -23.836  0.0000E+00  0.0000E+00
    -23.822  0.0000E+00  0.0000E+00
    -23.808  0.0000E+00  0.0000E+00
    -23.794  0.0000E+00  0.0000E+00
    -23.780  0.0000E+00  0.0000E+00
    -23.767  0.0000E+00  0.0000E+00
    -23.753  0.0000E+00  0.0000E+00
    -23.739  0.0000E+00  0.0000E+00
    -23.725  0.0000E+00  0.0000E+00
    -23.711  0.0000E+00  0.0000E+00
    -23.697  0.0000E+00  0.0000E+00
    -23.684  0.0000E+00  0.0000E+00
    -23.670  0.0000E+00  0.0000E+00
    -23.656  0.0000E+00  0.0000E+00
    -23.642  0.0000E+00  0.0000E+00
    -23.628  0.0000E+00  0.0000E+00
    -23.614  0.0000E+00  0.0000E+00
    -23.601  0.8919E-15  0.1234E-16
    -23.587  0.1784E-14  0.3701E-16
    -23.573  0.1070E-13  0.1850E-15
    -23.559  0.1338E-13  0.3701E-15
    -23.545  0.3478E-13  0.8512E-15
    -23.531  0.7313E-13  0.1863E-14
    -23.518  0.1605E-12  0.4083E-14
    -23.504  0.3469E-12  0.8882E-14
    -23.490  0.7349E-12  0.1905E-13
    -23.476  0.1555E-11  0.4055E-13
    -23.462  0.3257E-11  0.8560E-13
    -23.449  0.6736E-11  0.1788E-12
    -23.435  0.1382E-10  0.3699E-12
    -23.421  0.2808E-10  0.7584E-12
    -23.407  0.5654E-10  0.1540E-11
    -23.393  0.1127E-09  0.3099E-11
    -23.379  0.2226E-09  0.6178E-11
    -23.366  0.4354E-09  0.1220E-10
    -23.352  0.8437E-09  0.2387E-10
    -23.338  0.1619E-08  0.4627E-10
    -23.324  0.3079E-08  0.8885E-10
    -23.310  0.5798E-08  0.1690E-09
    -23.296  0.1081E-07  0.3186E-09
    -23.283  0.1998E-07  0.5950E-09
    -23.269  0.3657E-07  0.1101E-08
    -23.255  0.6631E-07  0.2018E-08
    -23.241  0.1191E-06  0.3665E-08
    -23.227  0.2118E-06  0.6595E-08
    -23.213  0.3732E-06  0.1176E-07
    -23.200  0.6515E-06  0.2077E-07
    -23.186  0.1126E-05  0.3635E-07
    -23.172  0.1929E-05  0.6303E-07
    -23.158  0.3273E-05  0.1083E-06
    -23.144  0.5500E-05  0.1844E-06
    -23.130  0.9155E-05  0.3110E-06
    -23.117  0.1510E-04  0.5198E-06
    -23.103  0.2466E-04  0.8609E-06
    -23.089  0.3991E-04  0.1413E-05
    -23.075  0.6397E-04  0.2298E-05
    -23.061  0.1016E-03  0.3703E-05
    -23.047  0.1598E-03  0.5912E-05
    -23.034  0.2490E-03  0.9356E-05
    -23.020  0.3843E-03  0.1467E-04
    -23.006  0.5878E-03  0.2280E-04
    -22.992  0.8904E-03  0.3512E-04
    -22.978  0.1336E-02  0.5360E-04
    -22.964  0.1987E-02  0.8109E-04
    -22.951  0.2927E-02  0.1216E-03
    -22.937  0.4272E-02  0.1807E-03
    -22.923  0.6177E-02  0.2661E-03
    -22.909  0.8848E-02  0.3885E-03
    -22.895  0.1256E-01  0.5622E-03
    -22.881  0.1766E-01  0.8064E-03
    -22.868  0.2461E-01  0.1147E-02
    -22.854  0.3397E-01  0.1617E-02
    -22.840  0.4648E-01  0.2260E-02
    -22.826  0.6301E-01  0.3131E-02
    -22.812  0.8464E-01  0.4302E-02
    -22.798  0.1127E+00  0.5860E-02
    -22.785  0.1487E+00  0.7916E-02
    -22.771  0.1944E+00  0.1061E-01
    -22.757  0.2519E+00  0.1409E-01
    -22.743  0.3236E+00  0.1857E-01
    -22.729  0.4120E+00  0.2426E-01
    -22.715  0.5201E+00  0.3146E-01
    -22.702  0.6508E+00  0.4046E-01
    -22.688  0.8073E+00  0.5162E-01
    -22.674  0.9930E+00  0.6536E-01
    -22.660  0.1211E+01  0.8211E-01
    -22.646  0.1465E+01  0.1024E+00
    -22.632  0.1757E+01  0.1267E+00
    -22.619  0.2091E+01  0.1556E+00
    -22.605  0.2468E+01  0.1897E+00
    -22.591  0.2890E+01  0.2297E+00
    -22.577  0.3357E+01  0.2761E+00
    -22.563  0.3870E+01  0.3297E+00
    -22.549  0.4428E+01  0.3909E+00
    -22.536  0.5029E+01  0.4605E+00
    -22.522  0.5670E+01  0.5389E+00
    -22.508  0.6347E+01  0.6267E+00
    -22.494  0.7055E+01  0.7243E+00
    -22.480  0.7789E+01  0.8320E+00
    -22.466  0.8542E+01  0.9502E+00
    -22.453  0.9308E+01  0.1079E+01
    -22.439  0.1008E+02  0.1218E+01
    -22.425  0.1085E+02  0.1368E+01
    -22.411  0.1160E+02  0.1529E+01
    -22.397  0.1234E+02  0.1700E+01
    -22.383  0.1306E+02  0.1880E+01
    -22.370  0.1374E+02  0.2070E+01
    -22.356  0.1439E+02  0.2269E+01
    -22.342  0.1499E+02  0.2477E+01
    -22.328  0.1555E+02  0.2692E+01
    -22.314  0.1606E+02  0.2914E+01
    -22.301  0.1652E+02  0.3142E+01
    -22.287  0.1693E+02  0.3376E+01
    -22.273  0.1729E+02  0.3615E+01
    -22.259  0.1760E+02  0.3859E+01
    -22.245  0.1786E+02  0.4106E+01
    -22.231  0.1809E+02  0.4356E+01
    -22.218  0.1827E+02  0.4609E+01
    -22.204  0.1843E+02  0.4864E+01
    -22.190  0.1855E+02  0.5120E+01
    -22.176  0.1865E+02  0.5378E+01
    -22.162  0.1874E+02  0.5637E+01
    -22.148  0.1881E+02  0.5898E+01
    -22.135  0.1887E+02  0.6158E+01
    -22.121  0.1892E+02  0.6420E+01
    -22.107  0.1897E+02  0.6683E+01
    -22.093  0.1902E+02  0.6946E+01
    -22.079  0.1907E+02  0.7209E+01
    -22.065  0.1912E+02  0.7474E+01
    -22.052  0.1916E+02  0.7739E+01
    -22.038  0.1921E+02  0.8005E+01
    -22.024  0.1925E+02  0.8271E+01
    -22.010  0.1929E+02  0.8538E+01
    -21.996  0.1932E+02  0.8805E+01
    -21.982  0.1934E+02  0.9072E+01
    -21.969  0.1935E+02  0.9340E+01
    -21.955  0.1936E+02  0.9608E+01
    -21.941  0.1935E+02  0.9875E+01
    -21.927  0.1934E+02  0.1014E+02
    -21.913  0.1932E+02  0.1041E+02
    -21.899  0.1929E+02  0.1068E+02
    -21.886  0.1926E+02  0.1094E+02
    -21.872  0.1923E+02  0.1121E+02
    -21.858  0.1920E+02  0.1147E+02
    -21.844  0.1918E+02  0.1174E+02
    -21.830  0.1917E+02  0.1201E+02
    -21.816  0.1917E+02  0.1227E+02
    -21.803  0.1918E+02  0.1254E+02
    -21.789  0.1921E+02  0.1280E+02
    -21.775  0.1925E+02  0.1307E+02
    -21.761  0.1931E+02  0.1333E+02
    -21.747  0.1939E+02  0.1360E+02
    -21.733  0.1948E+02  0.1387E+02
    -21.720  0.1959E+02  0.1414E+02
    -21.706  0.1971E+02  0.1442E+02
    -21.692  0.1985E+02  0.1469E+02
    -21.678  0.2000E+02  0.1497E+02
    -21.664  0.2015E+02  0.1525E+02
    -21.650  0.2032E+02  0.1553E+02
    -21.637  0.2049E+02  0.1581E+02
    -21.623  0.2066E+02  0.1610E+02
    -21.609  0.2083E+02  0.1638E+02
    -21.595  0.2099E+02  0.1667E+02
    -21.581  0.2115E+02  0.1697E+02
    -21.567  0.2130E+02  0.1726E+02
    -21.554  0.2144E+02  0.1756E+02
    -21.540  0.2156E+02  0.1786E+02
    -21.526  0.2167E+02  0.1816E+02
    -21.512  0.2176E+02  0.1846E+02
    -21.498  0.2184E+02  0.1876E+02
    -21.484  0.2190E+02  0.1906E+02
    -21.471  0.2194E+02  0.1937E+02
    -21.457  0.2196E+02  0.1967E+02
    -21.443  0.2197E+02  0.1997E+02
    -21.429  0.2197E+02  0.2028E+02
    -21.415  0.2195E+02  0.2058E+02
    -21.401  0.2193E+02  0.2088E+02
    -21.388  0.2190E+02  0.2119E+02
    -21.374  0.2186E+02  0.2149E+02
    -21.360  0.2181E+02  0.2179E+02
    -21.346  0.2177E+02  0.2209E+02
    -21.332  0.2172E+02  0.2239E+02
    -21.318  0.2168E+02  0.2269E+02
    -21.305  0.2163E+02  0.2299E+02
    -21.291  0.2159E+02  0.2329E+02
    -21.277  0.2155E+02  0.2359E+02
    -21.263  0.2151E+02  0.2389E+02
    -21.249  0.2146E+02  0.2418E+02
    -21.235  0.2142E+02  0.2448E+02
    -21.222  0.2138E+02  0.2477E+02
    -21.208  0.2134E+02  0.2507E+02
    -21.194  0.2130E+02  0.2536E+02
    -21.180  0.2125E+02  0.2566E+02
    -21.166  0.2120E+02  0.2595E+02
    -21.152  0.2116E+02  0.2624E+02
    -21.139  0.2111E+02  0.2654E+02
    -21.125  0.2105E+02  0.2683E+02
    -21.111  0.2100E+02  0.2712E+02
    -21.097  0.2095E+02  0.2741E+02
    -21.083  0.2090E+02  0.2770E+02
    -21.070  0.2086E+02  0.2798E+02
    -21.056  0.2082E+02  0.2827E+02
    -21.042  0.2079E+02  0.2856E+02
    -21.028  0.2076E+02  0.2885E+02
    -21.014  0.2075E+02  0.2913E+02
    -21.000  0.2075E+02  0.2942E+02
    -20.987  0.2076E+02  0.2971E+02
    -20.973  0.2079E+02  0.3000E+02
    -20.959  0.2084E+02  0.3028E+02
    -20.945  0.2091E+02  0.3057E+02
    -20.931  0.2099E+02  0.3086E+02
    -20.917  0.2109E+02  0.3116E+02
    -20.904  0.2120E+02  0.3145E+02
    -20.890  0.2133E+02  0.3174E+02
    -20.876  0.2147E+02  0.3204E+02
    -20.862  0.2163E+02  0.3234E+02
    -20.848  0.2179E+02  0.3264E+02
    -20.834  0.2195E+02  0.3294E+02
    -20.821  0.2211E+02  0.3325E+02
    -20.807  0.2227E+02  0.3356E+02
    -20.793  0.2242E+02  0.3387E+02
    -20.779  0.2256E+02  0.3418E+02
    -20.765  0.2269E+02  0.3450E+02
    -20.751  0.2280E+02  0.3481E+02
    -20.738  0.2289E+02  0.3513E+02
    -20.724  0.2295E+02  0.3544E+02
    -20.710  0.2300E+02  0.3576E+02
    -20.696  0.2302E+02  0.3608E+02
    -20.682  0.2303E+02  0.3640E+02
    -20.668  0.2301E+02  0.3672E+02
    -20.655  0.2299E+02  0.3704E+02
    -20.641  0.2296E+02  0.3735E+02
    -20.627  0.2292E+02  0.3767E+02
    -20.613  0.2289E+02  0.3799E+02
    -20.599  0.2287E+02  0.3830E+02
    -20.585  0.2287E+02  0.3862E+02
    -20.572  0.2289E+02  0.3894E+02
    -20.558  0.2293E+02  0.3925E+02
    -20.544  0.2302E+02  0.3957E+02
    -20.530  0.2313E+02  0.3989E+02
    -20.516  0.2329E+02  0.4021E+02
    -20.502  0.2349E+02  0.4054E+02
    -20.489  0.2373E+02  0.4087E+02
    -20.475  0.2400E+02  0.4120E+02
    -20.461  0.2431E+02  0.4153E+02
    -20.447  0.2464E+02  0.4188E+02
    -20.433  0.2499E+02  0.4222E+02
    -20.419  0.2536E+02  0.4257E+02
    -20.406  0.2573E+02  0.4293E+02
    -20.392  0.2610E+02  0.4329E+02
    -20.378  0.2645E+02  0.4365E+02
    -20.364  0.2680E+02  0.4403E+02
    -20.350  0.2712E+02  0.4440E+02
    -20.336  0.2741E+02  0.4478E+02
    -20.323  0.2767E+02  0.4516E+02
    -20.309  0.2789E+02  0.4555E+02
    -20.295  0.2808E+02  0.4594E+02
    -20.281  0.2823E+02  0.4633E+02
    -20.267  0.2835E+02  0.4672E+02
    -20.253  0.2843E+02  0.4711E+02
    -20.240  0.2849E+02  0.4751E+02
    -20.226  0.2851E+02  0.4790E+02
    -20.212  0.2850E+02  0.4829E+02
    -20.198  0.2847E+02  0.4869E+02
    -20.184  0.2842E+02  0.4908E+02
    -20.170  0.2834E+02  0.4947E+02
    -20.157  0.2824E+02  0.4986E+02
    -20.143  0.2812E+02  0.5025E+02
    -20.129  0.2798E+02  0.5064E+02
    -20.115  0.2782E+02  0.5102E+02
    -20.101  0.2763E+02  0.5141E+02
    -20.087  0.2742E+02  0.5179E+02
    -20.074  0.2718E+02  0.5216E+02
    -20.060  0.2691E+02  0.5253E+02
    -20.046  0.2662E+02  0.5290E+02
    -20.032  0.2631E+02  0.5327E+02
    -20.018  0.2596E+02  0.5363E+02
    -20.004  0.2560E+02  0.5398E+02
    -19.991  0.2521E+02  0.5433E+02
    -19.977  0.2481E+02  0.5467E+02
    -19.963  0.2439E+02  0.5501E+02
    -19.949  0.2396E+02  0.5534E+02
    -19.935  0.2353E+02  0.5567E+02
    -19.921  0.2309E+02  0.5599E+02
    -19.908  0.2265E+02  0.5630E+02
    -19.894  0.2222E+02  0.5661E+02
    -19.880  0.2180E+02  0.5691E+02
    -19.866  0.2140E+02  0.5720E+02
    -19.852  0.2100E+02  0.5749E+02
    -19.839  0.2062E+02  0.5778E+02
    -19.825  0.2027E+02  0.5806E+02
    -19.811  0.1993E+02  0.5833E+02
    -19.797  0.1961E+02  0.5861E+02
    -19.783  0.1931E+02  0.5887E+02
    -19.769  0.1904E+02  0.5914E+02
    -19.756  0.1879E+02  0.5940E+02
    -19.742  0.1857E+02  0.5965E+02
    -19.728  0.1837E+02  0.5991E+02
    -19.714  0.1820E+02  0.6016E+02
    -19.700  0.1805E+02  0.6041E+02
    -19.686  0.1793E+02  0.6066E+02
    -19.673  0.1784E+02  0.6090E+02
    -19.659  0.1778E+02  0.6115E+02
    -19.645  0.1774E+02  0.6140E+02
    -19.631  0.1773E+02  0.6164E+02
    -19.617  0.1775E+02  0.6189E+02
    -19.603  0.1780E+02  0.6213E+02
    -19.590  0.1788E+02  0.6238E+02
    -19.576  0.1799E+02  0.6263E+02
    -19.562  0.1813E+02  0.6288E+02
    -19.548  0.1830E+02  0.6313E+02
    -19.534  0.1850E+02  0.6339E+02
    -19.520  0.1874E+02  0.6365E+02
    -19.507  0.1901E+02  0.6391E+02
    -19.493  0.1932E+02  0.6418E+02
    -19.479  0.1966E+02  0.6445E+02
    -19.465  0.2004E+02  0.6473E+02
    -19.451  0.2045E+02  0.6501E+02
    -19.437  0.2089E+02  0.6530E+02
    -19.424  0.2136E+02  0.6559E+02
    -19.410  0.2185E+02  0.6590E+02
    -19.396  0.2236E+02  0.6620E+02
    -19.382  0.2289E+02  0.6652E+02
    -19.368  0.2343E+02  0.6685E+02
    -19.354  0.2396E+02  0.6718E+02
    -19.341  0.2449E+02  0.6752E+02
    -19.327  0.2501E+02  0.6786E+02
    -19.313  0.2551E+02  0.6821E+02
    -19.299  0.2598E+02  0.6857E+02
    -19.285  0.2642E+02  0.6894E+02
    -19.271  0.2681E+02  0.6931E+02
    -19.258  0.2716E+02  0.6969E+02
    -19.244  0.2747E+02  0.7007E+02
    -19.230  0.2772E+02  0.7045E+02
    -19.216  0.2792E+02  0.7084E+02
    -19.202  0.2807E+02  0.7122E+02
    -19.188  0.2818E+02  0.7161E+02
    -19.175  0.2824E+02  0.7200E+02
    -19.161  0.2825E+02  0.7239E+02
    -19.147  0.2823E+02  0.7279E+02
    -19.133  0.2818E+02  0.7317E+02
    -19.119  0.2810E+02  0.7356E+02
    -19.105  0.2800E+02  0.7395E+02
    -19.092  0.2788E+02  0.7434E+02
    -19.078  0.2774E+02  0.7472E+02
    -19.064  0.2760E+02  0.7510E+02
    -19.050  0.2746E+02  0.7548E+02
    -19.036  0.2731E+02  0.7586E+02
    -19.022  0.2717E+02  0.7624E+02
    -19.009  0.2703E+02  0.7661E+02
    -18.995  0.2689E+02  0.7698E+02
    -18.981  0.2677E+02  0.7735E+02
    -18.967  0.2665E+02  0.7772E+02
    -18.953  0.2654E+02  0.7809E+02
    -18.939  0.2645E+02  0.7845E+02
    -18.926  0.2637E+02  0.7882E+02
    -18.912  0.2630E+02  0.7918E+02
    -18.898  0.2625E+02  0.7954E+02
    -18.884  0.2621E+02  0.7991E+02
    -18.870  0.2619E+02  0.8027E+02
    -18.856  0.2618E+02  0.8063E+02
    -18.843  0.2618E+02  0.8099E+02
    -18.829  0.2620E+02  0.8136E+02
    -18.815  0.2624E+02  0.8172E+02
    -18.801  0.2628E+02  0.8208E+02
    -18.787  0.2633E+02  0.8245E+02
    -18.773  0.2639E+02  0.8281E+02
    -18.760  0.2646E+02  0.8318E+02
    -18.746  0.2652E+02  0.8354E+02
    -18.732  0.2659E+02  0.8391E+02
    -18.718  0.2665E+02  0.8428E+02
    -18.704  0.2672E+02  0.8465E+02
    -18.690  0.2678E+02  0.8502E+02
    -18.677  0.2683E+02  0.8539E+02
    -18.663  0.2688E+02  0.8576E+02
    -18.649  0.2692E+02  0.8614E+02
    -18.635  0.2696E+02  0.8651E+02
    -18.621  0.2700E+02  0.8688E+02
    -18.608  0.2704E+02  0.8726E+02
    -18.594  0.2708E+02  0.8763E+02
    -18.580  0.2711E+02  0.8801E+02
    -18.566  0.2715E+02  0.8838E+02
    -18.552  0.2720E+02  0.8876E+02
    -18.538  0.2724E+02  0.8913E+02
    -18.525  0.2730E+02  0.8951E+02
    -18.511  0.2736E+02  0.8989E+02
    -18.497  0.2742E+02  0.9027E+02
    -18.483  0.2749E+02  0.9065E+02
    -18.469  0.2757E+02  0.9103E+02
    -18.455  0.2764E+02  0.9141E+02
    -18.442  0.2772E+02  0.9180E+02
    -18.428  0.2779E+02  0.9218E+02
    -18.414  0.2786E+02  0.9257E+02
    -18.400  0.2792E+02  0.9295E+02
    -18.386  0.2797E+02  0.9334E+02
    -18.372  0.2801E+02  0.9373E+02
    -18.359  0.2803E+02  0.9411E+02
    -18.345  0.2804E+02  0.9450E+02
    -18.331  0.2803E+02  0.9489E+02
    -18.317  0.2800E+02  0.9528E+02
    -18.303  0.2795E+02  0.9566E+02
    -18.289  0.2789E+02  0.9605E+02
    -18.276  0.2780E+02  0.9643E+02
    -18.262  0.2770E+02  0.9682E+02
    -18.248  0.2758E+02  0.9720E+02
    -18.234  0.2745E+02  0.9758E+02
    -18.220  0.2730E+02  0.9796E+02
    -18.206  0.2714E+02  0.9833E+02
    -18.193  0.2698E+02  0.9870E+02
    -18.179  0.2681E+02  0.9908E+02
    -18.165  0.2663E+02  0.9944E+02
    -18.151  0.2645E+02  0.9981E+02
    -18.137  0.2628E+02  0.1002E+03
    -18.123  0.2611E+02  0.1005E+03
    -18.110  0.2594E+02  0.1009E+03
    -18.096  0.2578E+02  0.1012E+03
    -18.082  0.2563E+02  0.1016E+03
    -18.068  0.2549E+02  0.1020E+03
    -18.054  0.2536E+02  0.1023E+03
    -18.040  0.2525E+02  0.1027E+03
    -18.027  0.2515E+02  0.1030E+03
    -18.013  0.2507E+02  0.1034E+03
    -17.999  0.2500E+02  0.1037E+03
    -17.985  0.2495E+02  0.1040E+03
    -17.971  0.2492E+02  0.1044E+03
    -17.957  0.2490E+02  0.1047E+03
    -17.944  0.2489E+02  0.1051E+03
    -17.930  0.2489E+02  0.1054E+03
    -17.916  0.2491E+02  0.1058E+03
    -17.902  0.2493E+02  0.1061E+03
    -17.888  0.2496E+02  0.1065E+03
    -17.874  0.2499E+02  0.1068E+03
    -17.861  0.2503E+02  0.1071E+03
    -17.847  0.2507E+02  0.1075E+03
    -17.833  0.2511E+02  0.1078E+03
    -17.819  0.2516E+02  0.1082E+03
    -17.805  0.2521E+02  0.1085E+03
    -17.791  0.2526E+02  0.1089E+03
    -17.778  0.2531E+02  0.1092E+03
    -17.764  0.2537E+02  0.1096E+03
    -17.750  0.2543E+02  0.1099E+03
    -17.736  0.2550E+02  0.1103E+03
    -17.722  0.2558E+02  0.1106E+03
    -17.708  0.2566E+02  0.1110E+03
    -17.695  0.2575E+02  0.1114E+03
    -17.681  0.2585E+02  0.1117E+03
    -17.667  0.2595E+02  0.1121E+03
    -17.653  0.2606E+02  0.1124E+03
    -17.639  0.2617E+02  0.1128E+03
    -17.625  0.2628E+02  0.1132E+03
    -17.612  0.2639E+02  0.1135E+03
    -17.598  0.2650E+02  0.1139E+03
    -17.584  0.2661E+02  0.1143E+03
    -17.570  0.2671E+02  0.1146E+03
    -17.556  0.2680E+02  0.1150E+03
    -17.542  0.2689E+02  0.1154E+03
    -17.529  0.2696E+02  0.1157E+03
    -17.515  0.2702E+02  0.1161E+03
    -17.501  0.2707E+02  0.1165E+03
    -17.487  0.2710E+02  0.1169E+03
    -17.473  0.2711E+02  0.1172E+03
    -17.459  0.2712E+02  0.1176E+03
    -17.446  0.2710E+02  0.1180E+03
    -17.432  0.2707E+02  0.1184E+03
    -17.418  0.2703E+02  0.1187E+03
    -17.404  0.2697E+02  0.1191E+03
    -17.390  0.2690E+02  0.1195E+03
    -17.377  0.2681E+02  0.1199E+03
    -17.363  0.2671E+02  0.1202E+03
    -17.349  0.2660E+02  0.1206E+03
    -17.335  0.2648E+02  0.1210E+03
    -17.321  0.2636E+02  0.1213E+03
    -17.307  0.2622E+02  0.1217E+03
    -17.294  0.2608E+02  0.1220E+03
    -17.280  0.2592E+02  0.1224E+03
    -17.266  0.2577E+02  0.1228E+03
    -17.252  0.2561E+02  0.1231E+03
    -17.238  0.2544E+02  0.1235E+03
    -17.224  0.2527E+02  0.1238E+03
    -17.211  0.2509E+02  0.1242E+03
    -17.197  0.2492E+02  0.1245E+03
    -17.183  0.2473E+02  0.1249E+03
    -17.169  0.2455E+02  0.1252E+03
    -17.155  0.2435E+02  0.1255E+03
    -17.141  0.2416E+02  0.1259E+03
    -17.128  0.2396E+02  0.1262E+03
    -17.114  0.2375E+02  0.1265E+03
    -17.100  0.2354E+02  0.1268E+03
    -17.086  0.2333E+02  0.1272E+03
    -17.072  0.2311E+02  0.1275E+03
    -17.058  0.2290E+02  0.1278E+03
    -17.045  0.2268E+02  0.1281E+03
    -17.031  0.2246E+02  0.1284E+03
    -17.017  0.2224E+02  0.1287E+03
    -17.003  0.2203E+02  0.1290E+03
    -16.989  0.2184E+02  0.1293E+03
    -16.975  0.2165E+02  0.1296E+03
    -16.962  0.2148E+02  0.1299E+03
    -16.948  0.2133E+02  0.1302E+03
    -16.934  0.2120E+02  0.1305E+03
    -16.920  0.2109E+02  0.1308E+03
    -16.906  0.2102E+02  0.1311E+03
    -16.892  0.2097E+02  0.1314E+03
    -16.879  0.2095E+02  0.1317E+03
    -16.865  0.2097E+02  0.1320E+03
    -16.851  0.2101E+02  0.1323E+03
    -16.837  0.2108E+02  0.1326E+03
    -16.823  0.2117E+02  0.1329E+03
    -16.809  0.2128E+02  0.1332E+03
    -16.796  0.2140E+02  0.1334E+03
    -16.782  0.2154E+02  0.1337E+03
    -16.768  0.2167E+02  0.1340E+03
    -16.754  0.2180E+02  0.1343E+03
    -16.740  0.2192E+02  0.1347E+03
    -16.726  0.2203E+02  0.1350E+03
    -16.713  0.2211E+02  0.1353E+03
    -16.699  0.2217E+02  0.1356E+03
    -16.685  0.2221E+02  0.1359E+03
    -16.671  0.2221E+02  0.1362E+03
    -16.657  0.2219E+02  0.1365E+03
    -16.643  0.2214E+02  0.1368E+03
    -16.630  0.2207E+02  0.1371E+03
    -16.616  0.2199E+02  0.1374E+03
    -16.602  0.2189E+02  0.1377E+03
    -16.588  0.2178E+02  0.1380E+03
    -16.574  0.2168E+02  0.1383E+03
    -16.560  0.2159E+02  0.1386E+03
    -16.547  0.2152E+02  0.1389E+03
    -16.533  0.2147E+02  0.1392E+03
    -16.519  0.2145E+02  0.1395E+03
    -16.505  0.2148E+02  0.1398E+03
    -16.491  0.2154E+02  0.1401E+03
    -16.477  0.2165E+02  0.1404E+03
    -16.464  0.2181E+02  0.1407E+03
    -16.450  0.2201E+02  0.1410E+03
    -16.436  0.2226E+02  0.1413E+03
    -16.422  0.2255E+02  0.1416E+03
    -16.408  0.2288E+02  0.1419E+03
    -16.394  0.2325E+02  0.1423E+03
    -16.381  0.2364E+02  0.1426E+03
    -16.367  0.2406E+02  0.1429E+03
    -16.353  0.2449E+02  0.1433E+03
    -16.339  0.2493E+02  0.1436E+03
    -16.325  0.2538E+02  0.1440E+03
    -16.311  0.2583E+02  0.1443E+03
    -16.298  0.2627E+02  0.1447E+03
    -16.284  0.2669E+02  0.1450E+03
    -16.270  0.2710E+02  0.1454E+03
    -16.256  0.2749E+02  0.1458E+03
    -16.242  0.2786E+02  0.1462E+03
    -16.228  0.2820E+02  0.1466E+03
    -16.215  0.2851E+02  0.1470E+03
    -16.201  0.2878E+02  0.1474E+03
    -16.187  0.2903E+02  0.1478E+03
    -16.173  0.2924E+02  0.1482E+03
    -16.159  0.2942E+02  0.1486E+03
    -16.146  0.2957E+02  0.1490E+03
    -16.132  0.2968E+02  0.1494E+03
    -16.118  0.2975E+02  0.1498E+03
    -16.104  0.2980E+02  0.1502E+03
    -16.090  0.2981E+02  0.1506E+03
    -16.076  0.2979E+02  0.1510E+03
    -16.063  0.2975E+02  0.1515E+03
    -16.049  0.2967E+02  0.1519E+03
    -16.035  0.2957E+02  0.1523E+03
    -16.021  0.2945E+02  0.1527E+03
    -16.007  0.2930E+02  0.1531E+03
    -15.993  0.2913E+02  0.1535E+03
    -15.980  0.2895E+02  0.1539E+03
    -15.966  0.2875E+02  0.1543E+03
    -15.952  0.2853E+02  0.1547E+03
    -15.938  0.2829E+02  0.1551E+03
    -15.924  0.2805E+02  0.1555E+03
    -15.910  0.2779E+02  0.1558E+03
    -15.897  0.2752E+02  0.1562E+03
    -15.883  0.2724E+02  0.1566E+03
    -15.869  0.2696E+02  0.1570E+03
    -15.855  0.2666E+02  0.1573E+03
    -15.841  0.2637E+02  0.1577E+03
    -15.827  0.2606E+02  0.1581E+03
    -15.814  0.2576E+02  0.1584E+03
    -15.800  0.2545E+02  0.1588E+03
    -15.786  0.2514E+02  0.1591E+03
    -15.772  0.2483E+02  0.1595E+03
    -15.758  0.2453E+02  0.1598E+03
    -15.744  0.2423E+02  0.1601E+03
    -15.731  0.2393E+02  0.1605E+03
    -15.717  0.2365E+02  0.1608E+03
    -15.703  0.2338E+02  0.1611E+03
    -15.689  0.2313E+02  0.1614E+03
    -15.675  0.2290E+02  0.1618E+03
    -15.661  0.2269E+02  0.1621E+03
    -15.648  0.2250E+02  0.1624E+03
    -15.634  0.2235E+02  0.1627E+03
    -15.620  0.2223E+02  0.1630E+03
    -15.606  0.2214E+02  0.1633E+03
    -15.592  0.2209E+02  0.1636E+03
    -15.578  0.2207E+02  0.1639E+03
    -15.565  0.2210E+02  0.1642E+03
    -15.551  0.2216E+02  0.1645E+03
    -15.537  0.2226E+02  0.1648E+03
    -15.523  0.2240E+02  0.1652E+03
    -15.509  0.2256E+02  0.1655E+03
    -15.495  0.2276E+02  0.1658E+03
    -15.482  0.2298E+02  0.1661E+03
    -15.468  0.2322E+02  0.1664E+03
    -15.454  0.2348E+02  0.1667E+03
    -15.440  0.2374E+02  0.1671E+03
    -15.426  0.2401E+02  0.1674E+03
    -15.412  0.2428E+02  0.1677E+03
    -15.399  0.2455E+02  0.1681E+03
    -15.385  0.2480E+02  0.1684E+03
    -15.371  0.2503E+02  0.1688E+03
    -15.357  0.2525E+02  0.1691E+03
    -15.343  0.2543E+02  0.1695E+03
    -15.329  0.2559E+02  0.1698E+03
    -15.316  0.2572E+02  0.1702E+03
    -15.302  0.2582E+02  0.1705E+03
    -15.288  0.2588E+02  0.1709E+03
    -15.274  0.2590E+02  0.1713E+03
    -15.260  0.2589E+02  0.1716E+03
    -15.246  0.2584E+02  0.1720E+03
    -15.233  0.2575E+02  0.1723E+03
    -15.219  0.2564E+02  0.1727E+03
    -15.205  0.2549E+02  0.1730E+03
    -15.191  0.2532E+02  0.1734E+03
    -15.177  0.2512E+02  0.1737E+03
    -15.163  0.2491E+02  0.1741E+03
    -15.150  0.2468E+02  0.1744E+03
    -15.136  0.2444E+02  0.1748E+03
    -15.122  0.2420E+02  0.1751E+03
    -15.108  0.2396E+02  0.1754E+03
    -15.094  0.2373E+02  0.1757E+03
    -15.080  0.2352E+02  0.1761E+03
    -15.067  0.2332E+02  0.1764E+03
    -15.053  0.2314E+02  0.1767E+03
    -15.039  0.2298E+02  0.1770E+03
    -15.025  0.2286E+02  0.1773E+03
    -15.011  0.2276E+02  0.1777E+03
    -14.997  0.2270E+02  0.1780E+03
    -14.984  0.2267E+02  0.1783E+03
    -14.970  0.2268E+02  0.1786E+03
    -14.956  0.2271E+02  0.1789E+03
    -14.942  0.2279E+02  0.1792E+03
    -14.928  0.2289E+02  0.1795E+03
    -14.915  0.2303E+02  0.1799E+03
    -14.901  0.2319E+02  0.1802E+03
    -14.887  0.2338E+02  0.1805E+03
    -14.873  0.2360E+02  0.1808E+03
    -14.859  0.2384E+02  0.1812E+03
    -14.845  0.2409E+02  0.1815E+03
    -14.832  0.2436E+02  0.1818E+03
    -14.818  0.2464E+02  0.1822E+03
    -14.804  0.2492E+02  0.1825E+03
    -14.790  0.2521E+02  0.1829E+03
    -14.776  0.2549E+02  0.1832E+03
    -14.762  0.2576E+02  0.1836E+03
    -14.749  0.2602E+02  0.1839E+03
    -14.735  0.2626E+02  0.1843E+03
    -14.721  0.2648E+02  0.1847E+03
    -14.707  0.2667E+02  0.1850E+03
    -14.693  0.2683E+02  0.1854E+03
    -14.679  0.2695E+02  0.1858E+03
    -14.666  0.2705E+02  0.1862E+03
    -14.652  0.2711E+02  0.1865E+03
    -14.638  0.2713E+02  0.1869E+03
    -14.624  0.2712E+02  0.1873E+03
    -14.610  0.2709E+02  0.1877E+03
    -14.596  0.2702E+02  0.1880E+03
    -14.583  0.2693E+02  0.1884E+03
    -14.569  0.2682E+02  0.1888E+03
    -14.555  0.2669E+02  0.1891E+03
    -14.541  0.2655E+02  0.1895E+03
    -14.527  0.2640E+02  0.1899E+03
    -14.513  0.2626E+02  0.1902E+03
    -14.500  0.2612E+02  0.1906E+03
    -14.486  0.2599E+02  0.1910E+03
    -14.472  0.2588E+02  0.1913E+03
    -14.458  0.2578E+02  0.1917E+03
    -14.444  0.2572E+02  0.1920E+03
    -14.430  0.2567E+02  0.1924E+03
    -14.417  0.2566E+02  0.1927E+03
    -14.403  0.2569E+02  0.1931E+03
    -14.389  0.2574E+02  0.1935E+03
    -14.375  0.2583E+02  0.1938E+03
    -14.361  0.2596E+02  0.1942E+03
    -14.347  0.2611E+02  0.1945E+03
    -14.334  0.2630E+02  0.1949E+03
    -14.320  0.2651E+02  0.1953E+03
    -14.306  0.2675E+02  0.1956E+03
    -14.292  0.2700E+02  0.1960E+03
    -14.278  0.2726E+02  0.1964E+03
    -14.264  0.2753E+02  0.1968E+03
    -14.251  0.2781E+02  0.1971E+03
    -14.237  0.2807E+02  0.1975E+03
    -14.223  0.2833E+02  0.1979E+03
    -14.209  0.2856E+02  0.1983E+03
    -14.195  0.2878E+02  0.1987E+03
    -14.181  0.2896E+02  0.1991E+03
    -14.168  0.2911E+02  0.1995E+03
    -14.154  0.2923E+02  0.1999E+03
    -14.140  0.2930E+02  0.2003E+03
    -14.126  0.2934E+02  0.2007E+03
    -14.112  0.2933E+02  0.2011E+03
    -14.098  0.2928E+02  0.2015E+03
    -14.085  0.2918E+02  0.2020E+03
    -14.071  0.2905E+02  0.2024E+03
    -14.057  0.2887E+02  0.2028E+03
    -14.043  0.2866E+02  0.2031E+03
    -14.029  0.2842E+02  0.2035E+03
    -14.015  0.2816E+02  0.2039E+03
    -14.002  0.2787E+02  0.2043E+03
    -13.988  0.2757E+02  0.2047E+03
    -13.974  0.2725E+02  0.2051E+03
    -13.960  0.2694E+02  0.2054E+03
    -13.946  0.2662E+02  0.2058E+03
    -13.932  0.2631E+02  0.2062E+03
    -13.919  0.2601E+02  0.2065E+03
    -13.905  0.2573E+02  0.2069E+03
    -13.891  0.2546E+02  0.2072E+03
    -13.877  0.2522E+02  0.2076E+03
    -13.863  0.2501E+02  0.2079E+03
    -13.849  0.2482E+02  0.2083E+03
    -13.836  0.2466E+02  0.2086E+03
    -13.822  0.2453E+02  0.2090E+03
    -13.808  0.2443E+02  0.2093E+03
    -13.794  0.2436E+02  0.2096E+03
    -13.780  0.2432E+02  0.2100E+03
    -13.767  0.2430E+02  0.2103E+03
    -13.753  0.2431E+02  0.2107E+03
    -13.739  0.2435E+02  0.2110E+03
    -13.725  0.2440E+02  0.2113E+03
    -13.711  0.2447E+02  0.2117E+03
    -13.697  0.2456E+02  0.2120E+03
    -13.684  0.2466E+02  0.2123E+03
    -13.670  0.2478E+02  0.2127E+03
    -13.656  0.2491E+02  0.2130E+03
    -13.642  0.2504E+02  0.2134E+03
    -13.628  0.2518E+02  0.2137E+03
    -13.614  0.2533E+02  0.2141E+03
    -13.601  0.2548E+02  0.2144E+03
    -13.587  0.2563E+02  0.2148E+03
    -13.573  0.2577E+02  0.2151E+03
    -13.559  0.2591E+02  0.2155E+03
    -13.545  0.2604E+02  0.2159E+03
    -13.531  0.2616E+02  0.2162E+03
    -13.518  0.2626E+02  0.2166E+03
    -13.504  0.2635E+02  0.2169E+03
    -13.490  0.2642E+02  0.2173E+03
    -13.476  0.2646E+02  0.2177E+03
    -13.462  0.2648E+02  0.2180E+03
    -13.448  0.2648E+02  0.2184E+03
    -13.435  0.2645E+02  0.2188E+03
    -13.421  0.2639E+02  0.2191E+03
    -13.407  0.2632E+02  0.2195E+03
    -13.393  0.2622E+02  0.2199E+03
    -13.379  0.2610E+02  0.2202E+03
    -13.365  0.2596E+02  0.2206E+03
    -13.352  0.2582E+02  0.2209E+03
    -13.338  0.2566E+02  0.2213E+03
    -13.324  0.2551E+02  0.2217E+03
    -13.310  0.2536E+02  0.2220E+03
    -13.296  0.2521E+02  0.2224E+03
    -13.282  0.2507E+02  0.2227E+03
    -13.269  0.2496E+02  0.2230E+03
    -13.255  0.2486E+02  0.2234E+03
    -13.241  0.2478E+02  0.2237E+03
    -13.227  0.2472E+02  0.2241E+03
    -13.213  0.2469E+02  0.2244E+03
    -13.199  0.2469E+02  0.2248E+03
    -13.186  0.2471E+02  0.2251E+03
    -13.172  0.2476E+02  0.2254E+03
    -13.158  0.2483E+02  0.2258E+03
    -13.144  0.2493E+02  0.2261E+03
    -13.130  0.2505E+02  0.2265E+03
    -13.116  0.2519E+02  0.2268E+03
    -13.103  0.2535E+02  0.2272E+03
    -13.089  0.2553E+02  0.2275E+03
    -13.075  0.2572E+02  0.2279E+03
    -13.061  0.2592E+02  0.2282E+03
    -13.047  0.2613E+02  0.2286E+03
    -13.033  0.2635E+02  0.2290E+03
    -13.020  0.2657E+02  0.2293E+03
    -13.006  0.2679E+02  0.2297E+03