 114 114   0   0
  0.4626403E+02  0.1950962E-08  0.1351666E-08  0.2000000E-08  0.5000000E-15
  1.000000000000000E-004
  CAR 
 unknown system                          
      3.51491045    -24.23725686 2000     -3.45029763      1.00000000
    -24.237  0.0000E+00  0.0000E+00
    -24.223  0.0000E+00  0.0000E+00
    -24.209  0.0000E+00  0.0000E+00
    -24.196  0.0000E+00  0.0000E+00
    -24.182  0.0000E+00  0.0000E+00
    -24.168  0.0000E+00  0.0000E+00
    -24.154  0.0000E+00  0.0000E+00
    -24.140  0.0000E+00  0.0000E+00
    -24.126  0.0000E+00  0.0000E+00
    -24.112  0.0000E+00  0.0000E+00
    -24.098  0.0000E+00  0.0000E+00
    -24.085  0.0000E+00  0.0000E+00
    -24.071  0.0000E+00  0.0000E+00
    -24.057  0.0000E+00  0.0000E+00
    -24.043  0.0000E+00  0.0000E+00
    -24.029  0.0000E+00  0.0000E+00
    -24.015  0.0000E+00  0.0000E+00
    -24.001  0.0000E+00  0.0000E+00
    -23.987  0.0000E+00  0.0000E+00
    -23.973  0.0000E+00  0.0000E+00
    -23.960  0.0000E+00  0.0000E+00
    -23.946  0.0000E+00  0.0000E+00
    -23.932  0.0000E+00  0.0000E+00
    -23.918  0.0000E+00  0.0000E+00
    -23.904  0.0000E+00  0.0000E+00
    -23.890  0.0000E+00  0.0000E+00
    -23.876  0.0000E+00  0.0000E+00
    -23.862  0.0000E+00  0.0000E+00
    -23.849  0.0000E+00  0.0000E+00
    -23.835  0.0000E+00  0.0000E+00
    -23.821  0.0000E+00  0.0000E+00
    -23.807  0.0000E+00  0.0000E+00
    -23.793  0.0000E+00  0.0000E+00
    -23.779  0.0000E+00  0.0000E+00
    -23.765  0.0000E+00  0.0000E+00
    -23.751  0.0000E+00  0.0000E+00
    -23.737  0.0000E+00  0.0000E+00
    -23.724  0.0000E+00  0.0000E+00
    -23.710  0.0000E+00  0.0000E+00
    -23.696  0.0000E+00  0.0000E+00
    -23.682  0.0000E+00  0.0000E+00
    -23.668  0.0000E+00  0.0000E+00
    -23.654  0.0000E+00  0.0000E+00
    -23.640  0.0000E+00  0.0000E+00
    -23.626  0.0000E+00  0.0000E+00
    -23.613  0.0000E+00  0.0000E+00
    -23.599  0.0000E+00  0.0000E+00
    -23.585  0.0000E+00  0.0000E+00
    -23.571  0.0000E+00  0.0000E+00
    -23.557  0.0000E+00  0.0000E+00
    -23.543  0.0000E+00  0.0000E+00
    -23.529  0.0000E+00  0.0000E+00
    -23.515  0.0000E+00  0.0000E+00
    -23.501  0.0000E+00  0.0000E+00
    -23.488  0.0000E+00  0.0000E+00
    -23.474  0.0000E+00  0.0000E+00
    -23.460  0.0000E+00  0.0000E+00
    -23.446  0.0000E+00  0.0000E+00
    -23.432  0.0000E+00  0.0000E+00
    -23.418  0.8886E-15  0.1234E-16
    -23.404  0.1777E-14  0.3701E-16
    -23.390  0.3554E-14  0.8635E-16
    -23.377  0.1422E-13  0.2837E-15
    -23.363  0.2221E-13  0.5921E-15
    -23.349  0.5242E-13  0.1320E-14
    -23.335  0.1128E-12  0.2887E-14
    -23.321  0.2417E-12  0.6242E-14
    -23.307  0.5171E-12  0.1342E-13
    -23.293  0.1094E-11  0.2861E-13
    -23.279  0.2292E-11  0.6042E-13
    -23.265  0.4755E-11  0.1264E-12
    -23.252  0.9771E-11  0.2621E-12
    -23.238  0.1990E-10  0.5383E-12
    -23.224  0.4013E-10  0.1095E-11
    -23.210  0.8016E-10  0.2208E-11
    -23.196  0.1586E-09  0.4410E-11
    -23.182  0.3109E-09  0.8727E-11
    -23.168  0.6036E-09  0.1711E-10
    -23.154  0.1161E-08  0.3322E-10
    -23.140  0.2212E-08  0.6393E-10
    -23.127  0.4174E-08  0.1219E-09
    -23.113  0.7802E-08  0.2302E-09
    -23.099  0.1445E-07  0.4307E-09
    -23.085  0.2650E-07  0.7986E-09
    -23.071  0.4814E-07  0.1467E-08
    -23.057  0.8664E-07  0.2670E-08
    -23.043  0.1545E-06  0.4814E-08
    -23.029  0.2728E-06  0.8601E-08
    -23.016  0.4772E-06  0.1523E-07
    -23.002  0.8269E-06  0.2671E-07
    -22.988  0.1419E-05  0.4641E-07
    -22.974  0.2414E-05  0.7992E-07
    -22.960  0.4066E-05  0.1364E-06
    -22.946  0.6784E-05  0.2306E-06
    -22.932  0.1121E-04  0.3862E-06
    -22.918  0.1836E-04  0.6411E-06
    -22.904  0.2978E-04  0.1055E-05
    -22.891  0.4785E-04  0.1719E-05
    -22.877  0.7616E-04  0.2776E-05
    -22.863  0.1201E-03  0.4443E-05
    -22.849  0.1876E-03  0.7048E-05
    -22.835  0.2902E-03  0.1108E-04
    -22.821  0.4449E-03  0.1725E-04
    -22.807  0.6755E-03  0.2663E-04
    -22.793  0.1016E-02  0.4074E-04
    -22.780  0.1514E-02  0.6176E-04
    -22.766  0.2236E-02  0.9280E-04
    -22.752  0.3270E-02  0.1382E-03
    -22.738  0.4737E-02  0.2040E-03
    -22.724  0.6800E-02  0.2984E-03
    -22.710  0.9669E-02  0.4326E-03
    -22.696  0.1362E-01  0.6217E-03
    -22.682  0.1901E-01  0.8857E-03
    -22.668  0.2629E-01  0.1251E-02
    -22.655  0.3602E-01  0.1751E-02
    -22.641  0.4889E-01  0.2429E-02
    -22.627  0.6575E-01  0.3342E-02
    -22.613  0.8761E-01  0.4559E-02
    -22.599  0.1157E+00  0.6164E-02
    -22.585  0.1513E+00  0.8265E-02
    -22.571  0.1962E+00  0.1099E-01
    -22.557  0.2520E+00  0.1449E-01
    -22.544  0.3208E+00  0.1894E-01
    -22.530  0.4047E+00  0.2456E-01
    -22.516  0.5059E+00  0.3158E-01
    -22.502  0.6269E+00  0.4029E-01
    -22.488  0.7700E+00  0.5097E-01
    -22.474  0.9374E+00  0.6399E-01
    -22.460  0.1131E+01  0.7970E-01
    -22.446  0.1354E+01  0.9849E-01
    -22.432  0.1606E+01  0.1208E+00
    -22.419  0.1890E+01  0.1470E+00
    -22.405  0.2205E+01  0.1776E+00
    -22.391  0.2551E+01  0.2131E+00
    -22.377  0.2929E+01  0.2537E+00
    -22.363  0.3337E+01  0.3000E+00
    -22.349  0.3772E+01  0.3524E+00
    -22.335  0.4232E+01  0.4111E+00
    -22.321  0.4714E+01  0.4766E+00
    -22.308  0.5214E+01  0.5490E+00
    -22.294  0.5728E+01  0.6285E+00
    -22.280  0.6253E+01  0.7153E+00
    -22.266  0.6784E+01  0.8095E+00
    -22.252  0.7317E+01  0.9111E+00
    -22.238  0.7848E+01  0.1020E+01
    -22.224  0.8375E+01  0.1136E+01
    -22.210  0.8893E+01  0.1260E+01
    -22.196  0.9402E+01  0.1390E+01
    -22.183  0.9899E+01  0.1528E+01
    -22.169  0.1038E+02  0.1672E+01
    -22.155  0.1085E+02  0.1823E+01
    -22.141  0.1131E+02  0.1980E+01
    -22.127  0.1176E+02  0.2143E+01
    -22.113  0.1219E+02  0.2312E+01
    -22.099  0.1261E+02  0.2487E+01
    -22.085  0.1302E+02  0.2668E+01
    -22.072  0.1341E+02  0.2854E+01
    -22.058  0.1380E+02  0.3046E+01
    -22.044  0.1418E+02  0.3242E+01
    -22.030  0.1454E+02  0.3444E+01
    -22.016  0.1490E+02  0.3651E+01
    -22.002  0.1524E+02  0.3863E+01
    -21.988  0.1557E+02  0.4079E+01
    -21.974  0.1589E+02  0.4299E+01
    -21.960  0.1619E+02  0.4524E+01
    -21.947  0.1647E+02  0.4753E+01
    -21.933  0.1673E+02  0.4985E+01
    -21.919  0.1697E+02  0.5221E+01
    -21.905  0.1719E+02  0.5459E+01
    -21.891  0.1738E+02  0.5701E+01
    -21.877  0.1754E+02  0.5944E+01
    -21.863  0.1768E+02  0.6189E+01
    -21.849  0.1778E+02  0.6436E+01
    -21.835  0.1784E+02  0.6684E+01
    -21.822  0.1787E+02  0.6932E+01
    -21.808  0.1787E+02  0.7180E+01
    -21.794  0.1783E+02  0.7428E+01
    -21.780  0.1775E+02  0.7674E+01
    -21.766  0.1763E+02  0.7919E+01
    -21.752  0.1748E+02  0.8162E+01
    -21.738  0.1729E+02  0.8402E+01
    -21.724  0.1707E+02  0.8639E+01
    -21.711  0.1683E+02  0.8872E+01
    -21.697  0.1655E+02  0.9102E+01
    -21.683  0.1626E+02  0.9328E+01
    -21.669  0.1595E+02  0.9549E+01
    -21.655  0.1562E+02  0.9766E+01
    -21.641  0.1529E+02  0.9978E+01
    -21.627  0.1496E+02  0.1019E+02
    -21.613  0.1464E+02  0.1039E+02
    -21.599  0.1432E+02  0.1059E+02
    -21.586  0.1402E+02  0.1078E+02
    -21.572  0.1375E+02  0.1097E+02
    -21.558  0.1350E+02  0.1116E+02
    -21.544  0.1328E+02  0.1135E+02
    -21.530  0.1309E+02  0.1153E+02
    -21.516  0.1295E+02  0.1171E+02
    -21.502  0.1284E+02  0.1189E+02
    -21.488  0.1278E+02  0.1206E+02
    -21.475  0.1276E+02  0.1224E+02
    -21.461  0.1278E+02  0.1242E+02
    -21.447  0.1285E+02  0.1260E+02
    -21.433  0.1295E+02  0.1278E+02
    -21.419  0.1309E+02  0.1296E+02
    -21.405  0.1326E+02  0.1314E+02
    -21.391  0.1346E+02  0.1333E+02
    -21.377  0.1368E+02  0.1352E+02
    -21.363  0.1392E+02  0.1371E+02
    -21.350  0.1417E+02  0.1391E+02
    -21.336  0.1443E+02  0.1411E+02
    -21.322  0.1468E+02  0.1431E+02
    -21.308  0.1494E+02  0.1452E+02
    -21.294  0.1519E+02  0.1473E+02
    -21.280  0.1542E+02  0.1494E+02
    -21.266  0.1563E+02  0.1516E+02
    -21.252  0.1583E+02  0.1538E+02
    -21.239  0.1600E+02  0.1560E+02
    -21.225  0.1615E+02  0.1583E+02
    -21.211  0.1627E+02  0.1605E+02
    -21.197  0.1636E+02  0.1628E+02
    -21.183  0.1643E+02  0.1651E+02
    -21.169  0.1647E+02  0.1674E+02
    -21.155  0.1648E+02  0.1697E+02
    -21.141  0.1648E+02  0.1719E+02
    -21.127  0.1646E+02  0.1742E+02
    -21.114  0.1642E+02  0.1765E+02
    -21.100  0.1636E+02  0.1788E+02
    -21.086  0.1630E+02  0.1810E+02
    -21.072  0.1623E+02  0.1833E+02
    -21.058  0.1615E+02  0.1855E+02
    -21.044  0.1607E+02  0.1878E+02
    -21.030  0.1599E+02  0.1900E+02
    -21.016  0.1591E+02  0.1922E+02
    -21.003  0.1583E+02  0.1944E+02
    -20.989  0.1576E+02  0.1966E+02
    -20.975  0.1569E+02  0.1988E+02
    -20.961  0.1564E+02  0.2009E+02
    -20.947  0.1558E+02  0.2031E+02
    -20.933  0.1554E+02  0.2053E+02
    -20.919  0.1551E+02  0.2074E+02
    -20.905  0.1549E+02  0.2096E+02
    -20.891  0.1547E+02  0.2117E+02
    -20.878  0.1547E+02  0.2139E+02
    -20.864  0.1549E+02  0.2160E+02
    -20.850  0.1551E+02  0.2182E+02
    -20.836  0.1555E+02  0.2203E+02
    -20.822  0.1561E+02  0.2225E+02
    -20.808  0.1567E+02  0.2247E+02
    -20.794  0.1575E+02  0.2268E+02
    -20.780  0.1584E+02  0.2290E+02
    -20.767  0.1595E+02  0.2313E+02
    -20.753  0.1606E+02  0.2335E+02
    -20.739  0.1617E+02  0.2357E+02
    -20.725  0.1630E+02  0.2380E+02
    -20.711  0.1642E+02  0.2403E+02
    -20.697  0.1654E+02  0.2426E+02
    -20.683  0.1666E+02  0.2449E+02
    -20.669  0.1678E+02  0.2472E+02
    -20.655  0.1688E+02  0.2496E+02
    -20.642  0.1697E+02  0.2519E+02
    -20.628  0.1705E+02  0.2543E+02
    -20.614  0.1712E+02  0.2567E+02
    -20.600  0.1716E+02  0.2590E+02
    -20.586  0.1719E+02  0.2614E+02
    -20.572  0.1719E+02  0.2638E+02
    -20.558  0.1718E+02  0.2662E+02
    -20.544  0.1714E+02  0.2686E+02
    -20.530  0.1709E+02  0.2710E+02
    -20.517  0.1701E+02  0.2733E+02
    -20.503  0.1692E+02  0.2757E+02
    -20.489  0.1682E+02  0.2780E+02
    -20.475  0.1670E+02  0.2803E+02
    -20.461  0.1657E+02  0.2826E+02
    -20.447  0.1644E+02  0.2849E+02
    -20.433  0.1631E+02  0.2872E+02
    -20.419  0.1618E+02  0.2894E+02
    -20.406  0.1606E+02  0.2916E+02
    -20.392  0.1595E+02  0.2939E+02
    -20.378  0.1585E+02  0.2961E+02
    -20.364  0.1576E+02  0.2982E+02
    -20.350  0.1569E+02  0.3004E+02
    -20.336  0.1565E+02  0.3026E+02
    -20.322  0.1562E+02  0.3048E+02
    -20.308  0.1560E+02  0.3069E+02
    -20.294  0.1561E+02  0.3091E+02
    -20.281  0.1563E+02  0.3113E+02
    -20.267  0.1566E+02  0.3134E+02
    -20.253  0.1570E+02  0.3156E+02
    -20.239  0.1575E+02  0.3178E+02
    -20.225  0.1581E+02  0.3200E+02
    -20.211  0.1586E+02  0.3222E+02
    -20.197  0.1591E+02  0.3244E+02
    -20.183  0.1596E+02  0.3266E+02
    -20.170  0.1600E+02  0.3288E+02
    -20.156  0.1603E+02  0.3311E+02
    -20.142  0.1605E+02  0.3333E+02
    -20.128  0.1607E+02  0.3355E+02
    -20.114  0.1608E+02  0.3378E+02
    -20.100  0.1608E+02  0.3400E+02
    -20.086  0.1608E+02  0.3422E+02
    -20.072  0.1608E+02  0.3445E+02
    -20.058  0.1608E+02  0.3467E+02
    -20.045  0.1608E+02  0.3489E+02
    -20.031  0.1608E+02  0.3512E+02
    -20.017  0.1609E+02  0.3534E+02
    -20.003  0.1610E+02  0.3556E+02
    -19.989  0.1611E+02  0.3579E+02
    -19.975  0.1613E+02  0.3601E+02
    -19.961  0.1615E+02  0.3623E+02
    -19.947  0.1617E+02  0.3646E+02
    -19.934  0.1620E+02  0.3668E+02
    -19.920  0.1621E+02  0.3691E+02
    -19.906  0.1623E+02  0.3713E+02
    -19.892  0.1624E+02  0.3736E+02
    -19.878  0.1624E+02  0.3759E+02
    -19.864  0.1624E+02  0.3781E+02
    -19.850  0.1623E+02  0.3804E+02
    -19.836  0.1621E+02  0.3826E+02
    -19.822  0.1618E+02  0.3849E+02
    -19.809  0.1615E+02  0.3871E+02
    -19.795  0.1611E+02  0.3893E+02
    -19.781  0.1607E+02  0.3916E+02
    -19.767  0.1603E+02  0.3938E+02
    -19.753  0.1600E+02  0.3960E+02
    -19.739  0.1597E+02  0.3982E+02
    -19.725  0.1596E+02  0.4004E+02
    -19.711  0.1596E+02  0.4027E+02
    -19.698  0.1597E+02  0.4049E+02
    -19.684  0.1601E+02  0.4071E+02
    -19.670  0.1606E+02  0.4093E+02
    -19.656  0.1614E+02  0.4116E+02
    -19.642  0.1624E+02  0.4138E+02
    -19.628  0.1637E+02  0.4161E+02
    -19.614  0.1652E+02  0.4184E+02
    -19.600  0.1670E+02  0.4207E+02
    -19.586  0.1689E+02  0.4231E+02
    -19.573  0.1710E+02  0.4254E+02
    -19.559  0.1733E+02  0.4278E+02
    -19.545  0.1757E+02  0.4303E+02
    -19.531  0.1782E+02  0.4328E+02
    -19.517  0.1807E+02  0.4353E+02
    -19.503  0.1832E+02  0.4378E+02
    -19.489  0.1856E+02  0.4404E+02
    -19.475  0.1880E+02  0.4430E+02
    -19.461  0.1902E+02  0.4456E+02
    -19.448  0.1923E+02  0.4483E+02
    -19.434  0.1941E+02  0.4510E+02
    -19.420  0.1957E+02  0.4537E+02
    -19.406  0.1971E+02  0.4565E+02
    -19.392  0.1982E+02  0.4592E+02
    -19.378  0.1990E+02  0.4620E+02
    -19.364  0.1995E+02  0.4647E+02
    -19.350  0.1997E+02  0.4675E+02
    -19.337  0.1995E+02  0.4703E+02
    -19.323  0.1991E+02  0.4730E+02
    -19.309  0.1984E+02  0.4758E+02
    -19.295  0.1974E+02  0.4785E+02
    -19.281  0.1962E+02  0.4813E+02
    -19.267  0.1947E+02  0.4840E+02
    -19.253  0.1931E+02  0.4866E+02
    -19.239  0.1913E+02  0.4893E+02
    -19.225  0.1894E+02  0.4919E+02
    -19.212  0.1874E+02  0.4945E+02
    -19.198  0.1854E+02  0.4971E+02
    -19.184  0.1834E+02  0.4997E+02
    -19.170  0.1815E+02  0.5022E+02
    -19.156  0.1796E+02  0.5047E+02
    -19.142  0.1778E+02  0.5071E+02
    -19.128  0.1762E+02  0.5096E+02
    -19.114  0.1747E+02  0.5120E+02
    -19.101  0.1734E+02  0.5144E+02
    -19.087  0.1722E+02  0.5168E+02
    -19.073  0.1712E+02  0.5192E+02
    -19.059  0.1704E+02  0.5215E+02
    -19.045  0.1697E+02  0.5239E+02
    -19.031  0.1692E+02  0.5263E+02
    -19.017  0.1688E+02  0.5286E+02
    -19.003  0.1684E+02  0.5309E+02
    -18.989  0.1682E+02  0.5333E+02
    -18.976  0.1680E+02  0.5356E+02
    -18.962  0.1679E+02  0.5379E+02
    -18.948  0.1678E+02  0.5403E+02
    -18.934  0.1677E+02  0.5426E+02
    -18.920  0.1676E+02  0.5449E+02
    -18.906  0.1675E+02  0.5472E+02
    -18.892  0.1675E+02  0.5496E+02
    -18.878  0.1674E+02  0.5519E+02
    -18.865  0.1674E+02  0.5542E+02
    -18.851  0.1673E+02  0.5565E+02
    -18.837  0.1674E+02  0.5589E+02
    -18.823  0.1675E+02  0.5612E+02
    -18.809  0.1676E+02  0.5635E+02
    -18.795  0.1679E+02  0.5658E+02
    -18.781  0.1682E+02  0.5682E+02
    -18.767  0.1687E+02  0.5705E+02
    -18.753  0.1693E+02  0.5729E+02
    -18.740  0.1701E+02  0.5752E+02
    -18.726  0.1710E+02  0.5776E+02
    -18.712  0.1720E+02  0.5800E+02
    -18.698  0.1733E+02  0.5824E+02
    -18.684  0.1747E+02  0.5848E+02
    -18.670  0.1762E+02  0.5873E+02
    -18.656  0.1779E+02  0.5897E+02
    -18.642  0.1798E+02  0.5922E+02
    -18.629  0.1817E+02  0.5948E+02
    -18.615  0.1838E+02  0.5973E+02
    -18.601  0.1860E+02  0.5999E+02
    -18.587  0.1882E+02  0.6025E+02
    -18.573  0.1904E+02  0.6051E+02
    -18.559  0.1927E+02  0.6078E+02
    -18.545  0.1949E+02  0.6105E+02
    -18.531  0.1972E+02  0.6133E+02
    -18.517  0.1994E+02  0.6160E+02
    -18.504  0.2015E+02  0.6188E+02
    -18.490  0.2035E+02  0.6217E+02
    -18.476  0.2054E+02  0.6245E+02
    -18.462  0.2072E+02  0.6274E+02
    -18.448  0.2089E+02  0.6303E+02
    -18.434  0.2104E+02  0.6332E+02
    -18.420  0.2117E+02  0.6361E+02
    -18.406  0.2129E+02  0.6391E+02
    -18.393  0.2138E+02  0.6421E+02
    -18.379  0.2145E+02  0.6450E+02
    -18.365  0.2150E+02  0.6480E+02
    -18.351  0.2153E+02  0.6510E+02
    -18.337  0.2153E+02  0.6540E+02
    -18.323  0.2151E+02  0.6570E+02
    -18.309  0.2147E+02  0.6600E+02
    -18.295  0.2141E+02  0.6630E+02
    -18.281  0.2132E+02  0.6659E+02
    -18.268  0.2121E+02  0.6689E+02
    -18.254  0.2108E+02  0.6718E+02
    -18.240  0.2094E+02  0.6747E+02
    -18.226  0.2078E+02  0.6776E+02
    -18.212  0.2060E+02  0.6804E+02
    -18.198  0.2042E+02  0.6833E+02
    -18.184  0.2023E+02  0.6861E+02
    -18.170  0.2003E+02  0.6889E+02
    -18.156  0.1982E+02  0.6916E+02
    -18.143  0.1962E+02  0.6943E+02
    -18.129  0.1941E+02  0.6970E+02
    -18.115  0.1921E+02  0.6997E+02
    -18.101  0.1901E+02  0.7023E+02
    -18.087  0.1882E+02  0.7049E+02
    -18.073  0.1863E+02  0.7075E+02
    -18.059  0.1846E+02  0.7101E+02
    -18.045  0.1829E+02  0.7126E+02
    -18.032  0.1814E+02  0.7152E+02
    -18.018  0.1801E+02  0.7177E+02
    -18.004  0.1789E+02  0.7201E+02
    -17.990  0.1779E+02  0.7226E+02
    -17.976  0.1771E+02  0.7251E+02
    -17.962  0.1766E+02  0.7275E+02
    -17.948  0.1763E+02  0.7300E+02
    -17.934  0.1763E+02  0.7324E+02
    -17.920  0.1765E+02  0.7349E+02
    -17.907  0.1769E+02  0.7373E+02
    -17.893  0.1776E+02  0.7398E+02
    -17.879  0.1785E+02  0.7423E+02
    -17.865  0.1797E+02  0.7448E+02
    -17.851  0.1810E+02  0.7473E+02
    -17.837  0.1825E+02  0.7498E+02
    -17.823  0.1840E+02  0.7524E+02
    -17.809  0.1856E+02  0.7549E+02
    -17.796  0.1873E+02  0.7575E+02
    -17.782  0.1889E+02  0.7602E+02
    -17.768  0.1903E+02  0.7628E+02
    -17.754  0.1917E+02  0.7655E+02
    -17.740  0.1929E+02  0.7681E+02
    -17.726  0.1938E+02  0.7708E+02
    -17.712  0.1944E+02  0.7735E+02
    -17.698  0.1948E+02  0.7762E+02
    -17.684  0.1949E+02  0.7789E+02
    -17.671  0.1946E+02  0.7816E+02
    -17.657  0.1940E+02  0.7843E+02
    -17.643  0.1932E+02  0.7870E+02
    -17.629  0.1921E+02  0.7897E+02
    -17.615  0.1907E+02  0.7923E+02
    -17.601  0.1892E+02  0.7950E+02
    -17.587  0.1876E+02  0.7976E+02
    -17.573  0.1859E+02  0.8001E+02
    -17.560  0.1843E+02  0.8027E+02
    -17.546  0.1827E+02  0.8052E+02
    -17.532  0.1812E+02  0.8078E+02
    -17.518  0.1800E+02  0.8103E+02
    -17.504  0.1789E+02  0.8127E+02
    -17.490  0.1782E+02  0.8152E+02
    -17.476  0.1777E+02  0.8177E+02
    -17.462  0.1776E+02  0.8201E+02
    -17.448  0.1777E+02  0.8226E+02
    -17.435  0.1781E+02  0.8251E+02
    -17.421  0.1788E+02  0.8276E+02
    -17.407  0.1797E+02  0.8301E+02
    -17.393  0.1808E+02  0.8326E+02
    -17.379  0.1820E+02  0.8351E+02
    -17.365  0.1832E+02  0.8376E+02
    -17.351  0.1844E+02  0.8402E+02
    -17.337  0.1855E+02  0.8428E+02
    -17.324  0.1865E+02  0.8454E+02
    -17.310  0.1872E+02  0.8480E+02
    -17.296  0.1877E+02  0.8506E+02
    -17.282  0.1878E+02  0.8532E+02
    -17.268  0.1877E+02  0.8558E+02
    -17.254  0.1872E+02  0.8584E+02
    -17.240  0.1864E+02  0.8610E+02
    -17.226  0.1853E+02  0.8635E+02
    -17.212  0.1839E+02  0.8661E+02
    -17.199  0.1822E+02  0.8686E+02
    -17.185  0.1804E+02  0.8711E+02
    -17.171  0.1784E+02  0.8736E+02
    -17.157  0.1763E+02  0.8761E+02
    -17.143  0.1742E+02  0.8785E+02
    -17.129  0.1722E+02  0.8809E+02
    -17.115  0.1702E+02  0.8832E+02
    -17.101  0.1684E+02  0.8856E+02
    -17.087  0.1669E+02  0.8879E+02
    -17.074  0.1655E+02  0.8902E+02
    -17.060  0.1644E+02  0.8925E+02
    -17.046  0.1636E+02  0.8947E+02
    -17.032  0.1631E+02  0.8970E+02
    -17.018  0.1628E+02  0.8993E+02
    -17.004  0.1628E+02  0.9015E+02
    -16.990  0.1631E+02  0.9038E+02
    -16.976  0.1635E+02  0.9061E+02
    -16.963  0.1642E+02  0.9083E+02
    -16.949  0.1650E+02  0.9106E+02
    -16.935  0.1659E+02  0.9129E+02
    -16.921  0.1668E+02  0.9152E+02
    -16.907  0.1678E+02  0.9176E+02
    -16.893  0.1688E+02  0.9199E+02
    -16.879  0.1697E+02  0.9223E+02
    -16.865  0.1706E+02  0.9246E+02
    -16.851  0.1714E+02  0.9270E+02
    -16.838  0.1721E+02  0.9294E+02
    -16.824  0.1727E+02  0.9318E+02
    -16.810  0.1733E+02  0.9342E+02
    -16.796  0.1737E+02  0.9366E+02
    -16.782  0.1740E+02  0.9390E+02
    -16.768  0.1742E+02  0.9415E+02
    -16.754  0.1744E+02  0.9439E+02
    -16.740  0.1745E+02  0.9463E+02
    -16.727  0.1746E+02  0.9487E+02
    -16.713  0.1747E+02  0.9512E+02
    -16.699  0.1747E+02  0.9536E+02
    -16.685  0.1748E+02  0.9560E+02
    -16.671  0.1748E+02  0.9584E+02
    -16.657  0.1749E+02  0.9609E+02
    -16.643  0.1749E+02  0.9633E+02
    -16.629  0.1751E+02  0.9657E+02
    -16.615  0.1752E+02  0.9681E+02
    -16.602  0.1754E+02  0.9706E+02
    -16.588  0.1756E+02  0.9730E+02
    -16.574  0.1759E+02  0.9755E+02
    -16.560  0.1762E+02  0.9779E+02
    -16.546  0.1766E+02  0.9804E+02
    -16.532  0.1771E+02  0.9828E+02
    -16.518  0.1777E+02  0.9853E+02
    -16.504  0.1784E+02  0.9878E+02
    -16.491  0.1792E+02  0.9903E+02
    -16.477  0.1802E+02  0.9928E+02
    -16.463  0.1813E+02  0.9953E+02
    -16.449  0.1827E+02  0.9978E+02
    -16.435  0.1842E+02  0.1000E+03
    -16.421  0.1859E+02  0.1003E+03
    -16.407  0.1878E+02  0.1006E+03
    -16.393  0.1899E+02  0.1008E+03
    -16.379  0.1921E+02  0.1011E+03
    -16.366  0.1945E+02  0.1014E+03
    -16.352  0.1970E+02  0.1016E+03
    -16.338  0.1996E+02  0.1019E+03
    -16.324  0.2022E+02  0.1022E+03
    -16.310  0.2047E+02  0.1025E+03
    -16.296  0.2071E+02  0.1028E+03
    -16.282  0.2094E+02  0.1030E+03
    -16.268  0.2114E+02  0.1033E+03
    -16.255  0.2132E+02  0.1036E+03
    -16.241  0.2146E+02  0.1039E+03
    -16.227  0.2157E+02  0.1042E+03
    -16.213  0.2163E+02  0.1045E+03
    -16.199  0.2165E+02  0.1048E+03
    -16.185  0.2163E+02  0.1051E+03
    -16.171  0.2156E+02  0.1054E+03
    -16.157  0.2145E+02  0.1057E+03
    -16.143  0.2130E+02  0.1060E+03
    -16.130  0.2111E+02  0.1063E+03
    -16.116  0.2089E+02  0.1066E+03
    -16.102  0.2065E+02  0.1069E+03
    -16.088  0.2039E+02  0.1072E+03
    -16.074  0.2013E+02  0.1075E+03
    -16.060  0.1986E+02  0.1077E+03
    -16.046  0.1959E+02  0.1080E+03
    -16.032  0.1934E+02  0.1083E+03
    -16.019  0.1910E+02  0.1085E+03
    -16.005  0.1889E+02  0.1088E+03
    -15.991  0.1871E+02  0.1091E+03
    -15.977  0.1856E+02  0.1093E+03
    -15.963  0.1844E+02  0.1096E+03
    -15.949  0.1836E+02  0.1098E+03
    -15.935  0.1831E+02  0.1101E+03
    -15.921  0.1829E+02  0.1103E+03
    -15.907  0.1830E+02  0.1106E+03
    -15.894  0.1834E+02  0.1109E+03
    -15.880  0.1839E+02  0.1111E+03
    -15.866  0.1845E+02  0.1114E+03
    -15.852  0.1853E+02  0.1116E+03
    -15.838  0.1860E+02  0.1119E+03
    -15.824  0.1867E+02  0.1121E+03
    -15.810  0.1873E+02  0.1124E+03
    -15.796  0.1878E+02  0.1127E+03
    -15.782  0.1881E+02  0.1129E+03
    -15.769  0.1882E+02  0.1132E+03
    -15.755  0.1880E+02  0.1134E+03
    -15.741  0.1876E+02  0.1137E+03
    -15.727  0.1870E+02  0.1140E+03
    -15.713  0.1861E+02  0.1142E+03
    -15.699  0.1850E+02  0.1145E+03
    -15.685  0.1836E+02  0.1147E+03
    -15.671  0.1820E+02  0.1150E+03
    -15.658  0.1803E+02  0.1152E+03
    -15.644  0.1784E+02  0.1155E+03
    -15.630  0.1763E+02  0.1157E+03
    -15.616  0.1742E+02  0.1160E+03
    -15.602  0.1721E+02  0.1162E+03
    -15.588  0.1699E+02  0.1164E+03
    -15.574  0.1677E+02  0.1167E+03
    -15.560  0.1656E+02  0.1169E+03
    -15.546  0.1635E+02  0.1171E+03
    -15.533  0.1616E+02  0.1174E+03
    -15.519  0.1598E+02  0.1176E+03
    -15.505  0.1581E+02  0.1178E+03
    -15.491  0.1567E+02  0.1180E+03
    -15.477  0.1554E+02  0.1182E+03
    -15.463  0.1544E+02  0.1184E+03
    -15.449  0.1535E+02  0.1187E+03
    -15.435  0.1529E+02  0.1189E+03
    -15.422  0.1525E+02  0.1191E+03
    -15.408  0.1524E+02  0.1193E+03
    -15.394  0.1524E+02  0.1195E+03
    -15.380  0.1526E+02  0.1197E+03
    -15.366  0.1530E+02  0.1199E+03
    -15.352  0.1536E+02  0.1201E+03
    -15.338  0.1543E+02  0.1204E+03
    -15.324  0.1552E+02  0.1206E+03
    -15.310  0.1561E+02  0.1208E+03
    -15.297  0.1571E+02  0.1210E+03
    -15.283  0.1582E+02  0.1212E+03
    -15.269  0.1593E+02  0.1214E+03
    -15.255  0.1604E+02  0.1217E+03
    -15.241  0.1615E+02  0.1219E+03
    -15.227  0.1626E+02  0.1221E+03
    -15.213  0.1636E+02  0.1223E+03
    -15.199  0.1646E+02  0.1226E+03
    -15.186  0.1656E+02  0.1228E+03
    -15.172  0.1665E+02  0.1230E+03
    -15.158  0.1674E+02  0.1233E+03
    -15.144  0.1682E+02  0.1235E+03
    -15.130  0.1689E+02  0.1237E+03
    -15.116  0.1697E+02  0.1240E+03
    -15.102  0.1703E+02  0.1242E+03
    -15.088  0.1710E+02  0.1244E+03
    -15.074  0.1715E+02  0.1247E+03
    -15.061  0.1721E+02  0.1249E+03
    -15.047  0.1726E+02  0.1252E+03
    -15.033  0.1731E+02  0.1254E+03
    -15.019  0.1736E+02  0.1256E+03
    -15.005  0.1741E+02  0.1259E+03
    -14.991  0.1746E+02  0.1261E+03
    -14.977  0.1751E+02  0.1264E+03
    -14.963  0.1756E+02  0.1266E+03
    -14.950  0.1762E+02  0.1269E+03
    -14.936  0.1769E+02  0.1271E+03
    -14.922  0.1776E+02  0.1274E+03
    -14.908  0.1785E+02  0.1276E+03
    -14.894  0.1796E+02  0.1279E+03
    -14.880  0.1807E+02  0.1281E+03
    -14.866  0.1821E+02  0.1284E+03
    -14.852  0.1836E+02  0.1286E+03
    -14.838  0.1853E+02  0.1289E+03
    -14.825  0.1872E+02  0.1291E+03
    -14.811  0.1893E+02  0.1294E+03
    -14.797  0.1916E+02  0.1297E+03
    -14.783  0.1940E+02  0.1299E+03
    -14.769  0.1965E+02  0.1302E+03
    -14.755  0.1991E+02  0.1305E+03
    -14.741  0.2017E+02  0.1308E+03
    -14.727  0.2044E+02  0.1310E+03
    -14.714  0.2070E+02  0.1313E+03
    -14.700  0.2096E+02  0.1316E+03
    -14.686  0.2120E+02  0.1319E+03
    -14.672  0.2142E+02  0.1322E+03
    -14.658  0.2163E+02  0.1325E+03
    -14.644  0.2181E+02  0.1328E+03
    -14.630  0.2196E+02  0.1331E+03
    -14.616  0.2208E+02  0.1334E+03
    -14.602  0.2217E+02  0.1337E+03
    -14.589  0.2223E+02  0.1340E+03
    -14.575  0.2225E+02  0.1343E+03
    -14.561  0.2224E+02  0.1347E+03
    -14.547  0.2220E+02  0.1350E+03
    -14.533  0.2213E+02  0.1353E+03
    -14.519  0.2203E+02  0.1356E+03
    -14.505  0.2190E+02  0.1359E+03
    -14.491  0.2176E+02  0.1362E+03
    -14.477  0.2160E+02  0.1365E+03
    -14.464  0.2142E+02  0.1368E+03
    -14.450  0.2124E+02  0.1371E+03
    -14.436  0.2106E+02  0.1374E+03
    -14.422  0.2088E+02  0.1377E+03
    -14.408  0.2070E+02  0.1379E+03
    -14.394  0.2053E+02  0.1382E+03
    -14.380  0.2037E+02  0.1385E+03
    -14.366  0.2023E+02  0.1388E+03
    -14.353  0.2010E+02  0.1391E+03
    -14.339  0.2000E+02  0.1394E+03
    -14.325  0.1991E+02  0.1396E+03
    -14.311  0.1984E+02  0.1399E+03
    -14.297  0.1978E+02  0.1402E+03
    -14.283  0.1975E+02  0.1405E+03
    -14.269  0.1972E+02  0.1407E+03
    -14.255  0.1971E+02  0.1410E+03
    -14.241  0.1970E+02  0.1413E+03
    -14.228  0.1970E+02  0.1415E+03
    -14.214  0.1970E+02  0.1418E+03
    -14.200  0.1971E+02  0.1421E+03
    -14.186  0.1971E+02  0.1424E+03
    -14.172  0.1970E+02  0.1426E+03
    -14.158  0.1970E+02  0.1429E+03
    -14.144  0.1968E+02  0.1432E+03
    -14.130  0.1966E+02  0.1435E+03
    -14.117  0.1964E+02  0.1437E+03
    -14.103  0.1962E+02  0.1440E+03
    -14.089  0.1959E+02  0.1443E+03
    -14.075  0.1956E+02  0.1445E+03
    -14.061  0.1953E+02  0.1448E+03
    -14.047  0.1950E+02  0.1451E+03
    -14.033  0.1947E+02  0.1454E+03
    -14.019  0.1944E+02  0.1456E+03
    -14.005  0.1942E+02  0.1459E+03
    -13.992  0.1939E+02  0.1462E+03
    -13.978  0.1937E+02  0.1464E+03
    -13.964  0.1934E+02  0.1467E+03
    -13.950  0.1931E+02  0.1470E+03
    -13.936  0.1928E+02  0.1472E+03
    -13.922  0.1924E+02  0.1475E+03
    -13.908  0.1919E+02  0.1478E+03
    -13.894  0.1913E+02  0.1480E+03
    -13.881  0.1906E+02  0.1483E+03
    -13.867  0.1897E+02  0.1486E+03
    -13.853  0.1888E+02  0.1488E+03
    -13.839  0.1877E+02  0.1491E+03
    -13.825  0.1865E+02  0.1494E+03
    -13.811  0.1853E+02  0.1496E+03
    -13.797  0.1841E+02  0.1499E+03
    -13.783  0.1828E+02  0.1501E+03
    -13.769  0.1815E+02  0.1504E+03
    -13.756  0.1803E+02  0.1506E+03
    -13.742  0.1793E+02  0.1509E+03
    -13.728  0.1783E+02  0.1511E+03
    -13.714  0.1776E+02  0.1514E+03
    -13.700  0.1770E+02  0.1516E+03
    -13.686  0.1767E+02  0.1519E+03
    -13.672  0.1765E+02  0.1521E+03
    -13.658  0.1767E+02  0.1523E+03
    -13.645  0.1771E+02  0.1526E+03
    -13.631  0.1777E+02  0.1528E+03
    -13.617  0.1784E+02  0.1531E+03
    -13.603  0.1794E+02  0.1533E+03
    -13.589  0.1805E+02  0.1536E+03
    -13.575  0.1817E+02  0.1538E+03
    -13.561  0.1829E+02  0.1541E+03
    -13.547  0.1842E+02  0.1543E+03
    -13.533  0.1854E+02  0.1546E+03
    -13.520  0.1865E+02  0.1549E+03
    -13.506  0.1874E+02  0.1551E+03
    -13.492  0.1882E+02  0.1554E+03
    -13.478  0.1888E+02  0.1556E+03
    -13.464  0.1891E+02  0.1559E+03
    -13.450  0.1893E+02  0.1562E+03
    -13.436  0.1892E+02  0.1564E+03
    -13.422  0.1888E+02  0.1567E+03
    -13.408  0.1883E+02  0.1570E+03
    -13.395  0.1876E+02  0.1572E+03
    -13.381  0.1867E+02  0.1575E+03
    -13.367  0.1857E+02  0.1577E+03
    -13.353  0.1847E+02  0.1580E+03
    -13.339  0.1836E+02  0.1582E+03
    -13.325  0.1826E+02  0.1585E+03
    -13.311  0.1817E+02  0.1588E+03
    -13.297  0.1809E+02  0.1590E+03
    -13.284  0.1802E+02  0.1593E+03
    -13.270  0.1798E+02  0.1595E+03
    -13.256  0.1796E+02  0.1598E+03
    -13.242  0.1797E+02  0.1600E+03
    -13.228  0.1800E+02  0.1603E+03
    -13.214  0.1806E+02  0.1605E+03
    -13.200  0.1816E+02  0.1608E+03
    -13.186  0.1828E+02  0.1610E+03
    -13.172  0.1842E+02  0.1613E+03
    -13.159  0.1859E+02  0.1615E+03
    -13.145  0.1878E+02  0.1618E+03
    -13.131  0.1899E+02  0.1620E+03
    -13.117  0.1921E+02  0.1623E+03
    -13.103  0.1943E+02  0.1626E+03
    -13.089  0.1966E+02  0.1629E+03
    -13.075  0.1989E+02  0.1631E+03
    -13.061  0.2011E+02  0.1634E+03
    -13.048  0.2031E+02  0.1637E+03
    -13.034  0.2050E+02  0.1640E+03
    -13.020  0.2066E+02  0.1643E+03
    -13.006  0.2080E+02  0.1646E+03
    -12.992  0.2092E+02  0.1648E+03
    -12.978  0.2100E+02  0.1651E+03
    -12.964  0.2105E+02  0.1654E+03
    -12.950  0.2106E+02  0.1657E+03
    -12.936  0.2105E+02  0.1660E+03
    -12.923  0.2100E+02  0.1663E+03
    -12.909  0.2093E+02  0.1666E+03
    -12.895  0.2083E+02  0.1669E+03
    -12.881  0.2070E+02  0.1672E+03
    -12.867  0.2056E+02  0.1675E+03
    -12.853  0.2040E+02  0.1677E+03
    -12.839  0.2024E+02  0.1680E+03
    -12.825  0.2006E+02  0.1683E+03
    -12.812  0.1989E+02  0.1686E+03
    -12.798  0.1972E+02  0.1688E+03
    -12.784  0.1955E+02  0.1691E+03