  91  91   0   0
  0.2763302E+02  0.1704000E-08  0.1475707E-08  0.1000000E-08  0.5000000E-15
  1.000000000000000E-004
  CAR 
 unknown system                          
      5.44447156    -24.01961492 2000     -1.62805388      1.00000000
    -24.020  0.0000E+00  0.0000E+00
    -24.005  0.0000E+00  0.0000E+00
    -23.990  0.0000E+00  0.0000E+00
    -23.975  0.0000E+00  0.0000E+00
    -23.961  0.0000E+00  0.0000E+00
    -23.946  0.0000E+00  0.0000E+00
    -23.931  0.0000E+00  0.0000E+00
    -23.916  0.0000E+00  0.0000E+00
    -23.902  0.0000E+00  0.0000E+00
    -23.887  0.0000E+00  0.0000E+00
    -23.872  0.0000E+00  0.0000E+00
    -23.857  0.0000E+00  0.0000E+00
    -23.843  0.0000E+00  0.0000E+00
    -23.828  0.0000E+00  0.0000E+00
    -23.813  0.0000E+00  0.0000E+00
    -23.799  0.0000E+00  0.0000E+00
    -23.784  0.0000E+00  0.0000E+00
    -23.769  0.0000E+00  0.0000E+00
    -23.754  0.0000E+00  0.0000E+00
    -23.740  0.0000E+00  0.0000E+00
    -23.725  0.0000E+00  0.0000E+00
    -23.710  0.0000E+00  0.0000E+00
    -23.695  0.0000E+00  0.0000E+00
    -23.681  0.0000E+00  0.0000E+00
    -23.666  0.0000E+00  0.0000E+00
    -23.651  0.0000E+00  0.0000E+00
    -23.636  0.0000E+00  0.0000E+00
    -23.622  0.0000E+00  0.0000E+00
    -23.607  0.0000E+00  0.0000E+00
    -23.592  0.0000E+00  0.0000E+00
    -23.577  0.0000E+00  0.0000E+00
    -23.563  0.0000E+00  0.0000E+00
    -23.548  0.0000E+00  0.0000E+00
    -23.533  0.0000E+00  0.0000E+00
    -23.518  0.0000E+00  0.0000E+00
    -23.504  0.0000E+00  0.0000E+00
    -23.489  0.0000E+00  0.0000E+00
    -23.474  0.0000E+00  0.0000E+00
    -23.460  0.0000E+00  0.0000E+00
    -23.445  0.0000E+00  0.0000E+00
    -23.430  0.0000E+00  0.0000E+00
    -23.415  0.0000E+00  0.0000E+00
    -23.401  0.0000E+00  0.0000E+00
    -23.386  0.0000E+00  0.0000E+00
    -23.371  0.0000E+00  0.0000E+00
    -23.356  0.0000E+00  0.0000E+00
    -23.342  0.0000E+00  0.0000E+00
    -23.327  0.0000E+00  0.0000E+00
    -23.312  0.0000E+00  0.0000E+00
    -23.297  0.0000E+00  0.0000E+00
    -23.283  0.0000E+00  0.0000E+00
    -23.268  0.0000E+00  0.0000E+00
    -23.253  0.0000E+00  0.0000E+00
    -23.238  0.0000E+00  0.0000E+00
    -23.224  0.0000E+00  0.0000E+00
    -23.209  0.0000E+00  0.0000E+00
    -23.194  0.7532E-14  0.1110E-15
    -23.179  0.4185E-14  0.1727E-15
    -23.165  0.1758E-13  0.4318E-15
    -23.150  0.4101E-13  0.1036E-14
    -23.135  0.9290E-13  0.2405E-14
    -23.121  0.2143E-12  0.5563E-14
    -23.106  0.4770E-12  0.1259E-13
    -23.091  0.1071E-11  0.2838E-13
    -23.076  0.2359E-11  0.6316E-13
    -23.062  0.5155E-11  0.1391E-12
    -23.047  0.1113E-10  0.3032E-12
    -23.032  0.2379E-10  0.6539E-12
    -23.017  0.5028E-10  0.1395E-11
    -23.003  0.1051E-09  0.2944E-11
    -22.988  0.2174E-09  0.6149E-11
    -22.973  0.4449E-09  0.1271E-10
    -22.958  0.9004E-09  0.2598E-10
    -22.944  0.1803E-08  0.5255E-10
    -22.929  0.3570E-08  0.1052E-09
    -22.914  0.6994E-08  0.2082E-09
    -22.899  0.1355E-07  0.4080E-09
    -22.885  0.2598E-07  0.7910E-09
    -22.870  0.4927E-07  0.1517E-08
    -22.855  0.9243E-07  0.2880E-08
    -22.840  0.1715E-06  0.5408E-08
    -22.826  0.3148E-06  0.1005E-07
    -22.811  0.5717E-06  0.1848E-07
    -22.796  0.1027E-05  0.3361E-07
    -22.782  0.1825E-05  0.6051E-07
    -22.767  0.3207E-05  0.1078E-06
    -22.752  0.5576E-05  0.1900E-06
    -22.737  0.9591E-05  0.3313E-06
    -22.723  0.1632E-04  0.5719E-06
    -22.708  0.2746E-04  0.9767E-06
    -22.693  0.4572E-04  0.1651E-05
    -22.678  0.7530E-04  0.2761E-05
    -22.664  0.1227E-03  0.4569E-05
    -22.649  0.1977E-03  0.7483E-05
    -22.634  0.3152E-03  0.1213E-04
    -22.619  0.4970E-03  0.1945E-04
    -22.605  0.7754E-03  0.3088E-04
    -22.590  0.1196E-02  0.4852E-04
    -22.575  0.1826E-02  0.7544E-04
    -22.560  0.2758E-02  0.1161E-03
    -22.546  0.4119E-02  0.1768E-03
    -22.531  0.6087E-02  0.2665E-03
    -22.516  0.8897E-02  0.3977E-03
    -22.501  0.1286E-01  0.5873E-03
    -22.487  0.1840E-01  0.8585E-03
    -22.472  0.2603E-01  0.1242E-02
    -22.457  0.3643E-01  0.1779E-02
    -22.442  0.5044E-01  0.2523E-02
    -22.428  0.6908E-01  0.3541E-02
    -22.413  0.9359E-01  0.4920E-02
    -22.398  0.1254E+00  0.6769E-02
    -22.384  0.1663E+00  0.9220E-02
    -22.369  0.2180E+00  0.1243E-01
    -22.354  0.2829E+00  0.1660E-01
    -22.339  0.3630E+00  0.2195E-01
    -22.325  0.4608E+00  0.2874E-01
    -22.310  0.5786E+00  0.3727E-01
    -22.295  0.7187E+00  0.4786E-01
    -22.280  0.8830E+00  0.6088E-01
    -22.266  0.1073E+01  0.7670E-01
    -22.251  0.1291E+01  0.9572E-01
    -22.236  0.1535E+01  0.1183E+00
    -22.221  0.1806E+01  0.1450E+00
    -22.207  0.2102E+01  0.1759E+00
    -22.192  0.2420E+01  0.2116E+00
    -22.177  0.2756E+01  0.2522E+00
    -22.162  0.3105E+01  0.2980E+00
    -22.148  0.3461E+01  0.3490E+00
    -22.133  0.3816E+01  0.4053E+00
    -22.118  0.4162E+01  0.4666E+00
    -22.103  0.4490E+01  0.5328E+00
    -22.089  0.4793E+01  0.6034E+00
    -22.074  0.5061E+01  0.6780E+00
    -22.059  0.5287E+01  0.7559E+00
    -22.045  0.5465E+01  0.8365E+00
    -22.030  0.5589E+01  0.9189E+00
    -22.015  0.5656E+01  0.1002E+01
    -22.000  0.5665E+01  0.1086E+01
    -21.986  0.5618E+01  0.1169E+01
    -21.971  0.5515E+01  0.1250E+01
    -21.956  0.5364E+01  0.1329E+01
    -21.941  0.5171E+01  0.1405E+01
    -21.927  0.4944E+01  0.1478E+01
    -21.912  0.4693E+01  0.1547E+01
    -21.897  0.4430E+01  0.1612E+01
    -21.882  0.4165E+01  0.1674E+01
    -21.868  0.3910E+01  0.1731E+01
    -21.853  0.3676E+01  0.1786E+01
    -21.838  0.3472E+01  0.1837E+01
    -21.823  0.3310E+01  0.1886E+01
    -21.809  0.3195E+01  0.1933E+01
    -21.794  0.3136E+01  0.1979E+01
    -21.779  0.3137E+01  0.2025E+01
    -21.764  0.3200E+01  0.2072E+01
    -21.750  0.3328E+01  0.2121E+01
    -21.735  0.3519E+01  0.2173E+01
    -21.720  0.3771E+01  0.2229E+01
    -21.706  0.4081E+01  0.2289E+01
    -21.691  0.4443E+01  0.2354E+01
    -21.676  0.4849E+01  0.2426E+01
    -21.661  0.5292E+01  0.2504E+01
    -21.647  0.5762E+01  0.2589E+01
    -21.632  0.6250E+01  0.2681E+01
    -21.617  0.6746E+01  0.2780E+01
    -21.602  0.7238E+01  0.2887E+01
    -21.588  0.7717E+01  0.3001E+01
    -21.573  0.8172E+01  0.3121E+01
    -21.558  0.8594E+01  0.3248E+01
    -21.543  0.8976E+01  0.3380E+01
    -21.529  0.9309E+01  0.3517E+01
    -21.514  0.9588E+01  0.3659E+01
    -21.499  0.9809E+01  0.3803E+01
    -21.484  0.9969E+01  0.3950E+01
    -21.470  0.1007E+02  0.4099E+01
    -21.455  0.1011E+02  0.4248E+01
    -21.440  0.1009E+02  0.4396E+01
    -21.425  0.1002E+02  0.4544E+01
    -21.411  0.9904E+01  0.4690E+01
    -21.396  0.9748E+01  0.4834E+01
    -21.381  0.9561E+01  0.4975E+01
    -21.367  0.9353E+01  0.5113E+01
    -21.352  0.9133E+01  0.5247E+01
    -21.337  0.8910E+01  0.5379E+01
    -21.322  0.8693E+01  0.5507E+01
    -21.308  0.8491E+01  0.5632E+01
    -21.293  0.8312E+01  0.5754E+01
    -21.278  0.8162E+01  0.5875E+01
    -21.263  0.8045E+01  0.5993E+01
    -21.249  0.7967E+01  0.6111E+01
    -21.234  0.7929E+01  0.6227E+01
    -21.219  0.7932E+01  0.6344E+01
    -21.204  0.7976E+01  0.6462E+01
    -21.190  0.8061E+01  0.6581E+01
    -21.175  0.8184E+01  0.6701E+01
    -21.160  0.8343E+01  0.6824E+01
    -21.145  0.8537E+01  0.6950E+01
    -21.131  0.8762E+01  0.7079E+01
    -21.116  0.9017E+01  0.7212E+01
    -21.101  0.9299E+01  0.7349E+01
    -21.086  0.9606E+01  0.7491E+01
    -21.072  0.9936E+01  0.7637E+01
    -21.057  0.1029E+02  0.7789E+01
    -21.042  0.1065E+02  0.7946E+01
    -21.028  0.1104E+02  0.8109E+01
    -21.013  0.1143E+02  0.8277E+01
    -20.998  0.1183E+02  0.8452E+01
    -20.983  0.1223E+02  0.8632E+01
    -20.969  0.1263E+02  0.8818E+01
    -20.954  0.1301E+02  0.9010E+01
    -20.939  0.1337E+02  0.9207E+01
    -20.924  0.1371E+02  0.9409E+01
    -20.910  0.1402E+02  0.9616E+01
    -20.895  0.1429E+02  0.9826E+01
    -20.880  0.1451E+02  0.1004E+02
    -20.865  0.1469E+02  0.1026E+02
    -20.851  0.1482E+02  0.1048E+02
    -20.836  0.1490E+02  0.1069E+02
    -20.821  0.1492E+02  0.1091E+02
    -20.806  0.1490E+02  0.1113E+02
    -20.792  0.1483E+02  0.1135E+02
    -20.777  0.1472E+02  0.1157E+02
    -20.762  0.1458E+02  0.1178E+02
    -20.747  0.1441E+02  0.1200E+02
    -20.733  0.1422E+02  0.1221E+02
    -20.718  0.1402E+02  0.1241E+02
    -20.703  0.1381E+02  0.1262E+02
    -20.689  0.1360E+02  0.1282E+02
    -20.674  0.1339E+02  0.1301E+02
    -20.659  0.1320E+02  0.1321E+02
    -20.644  0.1302E+02  0.1340E+02
    -20.630  0.1286E+02  0.1359E+02
    -20.615  0.1272E+02  0.1378E+02
    -20.600  0.1261E+02  0.1396E+02
    -20.585  0.1251E+02  0.1415E+02
    -20.571  0.1244E+02  0.1433E+02
    -20.556  0.1239E+02  0.1451E+02
    -20.541  0.1237E+02  0.1470E+02
    -20.526  0.1237E+02  0.1488E+02
    -20.512  0.1239E+02  0.1506E+02
    -20.497  0.1243E+02  0.1524E+02
    -20.482  0.1249E+02  0.1543E+02
    -20.467  0.1257E+02  0.1561E+02
    -20.453  0.1268E+02  0.1580E+02
    -20.438  0.1280E+02  0.1599E+02
    -20.423  0.1293E+02  0.1618E+02
    -20.408  0.1309E+02  0.1637E+02
    -20.394  0.1326E+02  0.1657E+02
    -20.379  0.1345E+02  0.1677E+02
    -20.364  0.1365E+02  0.1697E+02
    -20.350  0.1386E+02  0.1717E+02
    -20.335  0.1408E+02  0.1738E+02
    -20.320  0.1430E+02  0.1759E+02
    -20.305  0.1453E+02  0.1781E+02
    -20.291  0.1476E+02  0.1802E+02
    -20.276  0.1499E+02  0.1824E+02
    -20.261  0.1520E+02  0.1847E+02
    -20.246  0.1541E+02  0.1869E+02
    -20.232  0.1559E+02  0.1892E+02
    -20.217  0.1576E+02  0.1916E+02
    -20.202  0.1589E+02  0.1939E+02
    -20.187  0.1600E+02  0.1963E+02
    -20.173  0.1607E+02  0.1986E+02
    -20.158  0.1609E+02  0.2010E+02
    -20.143  0.1607E+02  0.2034E+02
    -20.128  0.1600E+02  0.2057E+02
    -20.114  0.1587E+02  0.2081E+02
    -20.099  0.1568E+02  0.2104E+02
    -20.084  0.1544E+02  0.2127E+02
    -20.069  0.1514E+02  0.2149E+02
    -20.055  0.1478E+02  0.2171E+02
    -20.040  0.1437E+02  0.2192E+02
    -20.025  0.1391E+02  0.2212E+02
    -20.010  0.1342E+02  0.2232E+02
    -19.996  0.1289E+02  0.2251E+02
    -19.981  0.1235E+02  0.2269E+02
    -19.966  0.1180E+02  0.2287E+02
    -19.952  0.1126E+02  0.2303E+02
    -19.937  0.1074E+02  0.2319E+02
    -19.922  0.1024E+02  0.2334E+02
    -19.907  0.9793E+01  0.2349E+02
    -19.893  0.9398E+01  0.2363E+02
    -19.878  0.9065E+01  0.2376E+02
    -19.863  0.8801E+01  0.2389E+02
    -19.848  0.8612E+01  0.2402E+02
    -19.834  0.8499E+01  0.2414E+02
    -19.819  0.8462E+01  0.2427E+02
    -19.804  0.8498E+01  0.2439E+02
    -19.789  0.8602E+01  0.2452E+02
    -19.775  0.8769E+01  0.2465E+02
    -19.760  0.8990E+01  0.2478E+02
    -19.745  0.9255E+01  0.2492E+02
    -19.730  0.9555E+01  0.2506E+02
    -19.716  0.9880E+01  0.2520E+02
    -19.701  0.1022E+02  0.2535E+02
    -19.686  0.1057E+02  0.2551E+02
    -19.671  0.1091E+02  0.2567E+02
    -19.657  0.1124E+02  0.2584E+02
    -19.642  0.1156E+02  0.2601E+02
    -19.627  0.1185E+02  0.2618E+02
    -19.613  0.1212E+02  0.2636E+02
    -19.598  0.1237E+02  0.2654E+02
    -19.583  0.1259E+02  0.2673E+02
    -19.568  0.1279E+02  0.2692E+02
    -19.554  0.1296E+02  0.2711E+02
    -19.539  0.1312E+02  0.2730E+02
    -19.524  0.1326E+02  0.2750E+02
    -19.509  0.1339E+02  0.2769E+02
    -19.495  0.1351E+02  0.2789E+02
    -19.480  0.1362E+02  0.2809E+02
    -19.465  0.1374E+02  0.2830E+02
    -19.450  0.1385E+02  0.2850E+02
    -19.436  0.1397E+02  0.2871E+02
    -19.421  0.1409E+02  0.2891E+02
    -19.406  0.1421E+02  0.2912E+02
    -19.391  0.1434E+02  0.2933E+02
    -19.377  0.1446E+02  0.2955E+02
    -19.362  0.1457E+02  0.2976E+02
    -19.347  0.1468E+02  0.2998E+02
    -19.332  0.1477E+02  0.3020E+02
    -19.318  0.1484E+02  0.3041E+02
    -19.303  0.1488E+02  0.3063E+02
    -19.288  0.1489E+02  0.3085E+02
    -19.274  0.1487E+02  0.3107E+02
    -19.259  0.1482E+02  0.3129E+02
    -19.244  0.1473E+02  0.3151E+02
    -19.229  0.1461E+02  0.3172E+02
    -19.215  0.1444E+02  0.3194E+02
    -19.200  0.1425E+02  0.3215E+02
    -19.185  0.1404E+02  0.3235E+02
    -19.170  0.1380E+02  0.3256E+02
    -19.156  0.1355E+02  0.3276E+02
    -19.141  0.1329E+02  0.3295E+02
    -19.126  0.1303E+02  0.3314E+02
    -19.111  0.1278E+02  0.3333E+02
    -19.097  0.1254E+02  0.3352E+02
    -19.082  0.1232E+02  0.3370E+02
    -19.067  0.1212E+02  0.3388E+02
    -19.052  0.1195E+02  0.3405E+02
    -19.038  0.1181E+02  0.3423E+02
    -19.023  0.1169E+02  0.3440E+02
    -19.008  0.1161E+02  0.3457E+02
    -18.993  0.1155E+02  0.3474E+02
    -18.979  0.1151E+02  0.3491E+02
    -18.964  0.1149E+02  0.3508E+02
    -18.949  0.1149E+02  0.3525E+02
    -18.935  0.1151E+02  0.3542E+02
    -18.920  0.1153E+02  0.3559E+02
    -18.905  0.1157E+02  0.3576E+02
    -18.890  0.1161E+02  0.3593E+02
    -18.876  0.1166E+02  0.3610E+02
    -18.861  0.1172E+02  0.3628E+02
    -18.846  0.1178E+02  0.3645E+02
    -18.831  0.1184E+02  0.3662E+02
    -18.817  0.1191E+02  0.3680E+02
    -18.802  0.1199E+02  0.3698E+02
    -18.787  0.1207E+02  0.3715E+02
    -18.772  0.1216E+02  0.3733E+02
    -18.758  0.1225E+02  0.3751E+02
    -18.743  0.1234E+02  0.3770E+02
    -18.728  0.1244E+02  0.3788E+02
    -18.713  0.1253E+02  0.3806E+02
    -18.699  0.1263E+02  0.3825E+02
    -18.684  0.1271E+02  0.3844E+02
    -18.669  0.1279E+02  0.3863E+02
    -18.654  0.1285E+02  0.3881E+02
    -18.640  0.1289E+02  0.3900E+02
    -18.625  0.1292E+02  0.3920E+02
    -18.610  0.1292E+02  0.3939E+02
    -18.596  0.1291E+02  0.3958E+02
    -18.581  0.1287E+02  0.3977E+02
    -18.566  0.1281E+02  0.3995E+02
    -18.551  0.1273E+02  0.4014E+02
    -18.537  0.1264E+02  0.4033E+02
    -18.522  0.1253E+02  0.4051E+02
    -18.507  0.1241E+02  0.4070E+02
    -18.492  0.1229E+02  0.4088E+02
    -18.478  0.1217E+02  0.4106E+02
    -18.463  0.1204E+02  0.4123E+02
    -18.448  0.1192E+02  0.4141E+02
    -18.433  0.1181E+02  0.4158E+02
    -18.419  0.1171E+02  0.4176E+02
    -18.404  0.1162E+02  0.4193E+02
    -18.389  0.1155E+02  0.4210E+02
    -18.374  0.1148E+02  0.4227E+02
    -18.360  0.1143E+02  0.4244E+02
    -18.345  0.1139E+02  0.4260E+02
    -18.330  0.1136E+02  0.4277E+02
    -18.315  0.1135E+02  0.4294E+02
    -18.301  0.1134E+02  0.4311E+02
    -18.286  0.1135E+02  0.4327E+02
    -18.271  0.1136E+02  0.4344E+02
    -18.257  0.1139E+02  0.4361E+02
    -18.242  0.1143E+02  0.4378E+02
    -18.227  0.1148E+02  0.4395E+02
    -18.212  0.1154E+02  0.4412E+02
    -18.198  0.1161E+02  0.4429E+02
    -18.183  0.1169E+02  0.4446E+02
    -18.168  0.1178E+02  0.4463E+02
    -18.153  0.1189E+02  0.4481E+02
    -18.139  0.1200E+02  0.4498E+02
    -18.124  0.1212E+02  0.4516E+02
    -18.109  0.1224E+02  0.4534E+02
    -18.094  0.1238E+02  0.4553E+02
    -18.080  0.1251E+02  0.4571E+02
    -18.065  0.1264E+02  0.4590E+02
    -18.050  0.1278E+02  0.4609E+02
    -18.035  0.1291E+02  0.4628E+02
    -18.021  0.1303E+02  0.4647E+02
    -18.006  0.1316E+02  0.4666E+02
    -17.991  0.1328E+02  0.4686E+02
    -17.976  0.1339E+02  0.4705E+02
    -17.962  0.1351E+02  0.4725E+02
    -17.947  0.1362E+02  0.4745E+02
    -17.932  0.1373E+02  0.4766E+02
    -17.917  0.1384E+02  0.4786E+02
    -17.903  0.1395E+02  0.4807E+02
    -17.888  0.1406E+02  0.4827E+02
    -17.873  0.1417E+02  0.4848E+02
    -17.859  0.1428E+02  0.4869E+02
    -17.844  0.1439E+02  0.4890E+02
    -17.829  0.1449E+02  0.4912E+02
    -17.814  0.1459E+02  0.4933E+02
    -17.800  0.1468E+02  0.4955E+02
    -17.785  0.1476E+02  0.4977E+02
    -17.770  0.1483E+02  0.4999E+02
    -17.755  0.1488E+02  0.5021E+02
    -17.741  0.1491E+02  0.5043E+02
    -17.726  0.1492E+02  0.5065E+02
    -17.711  0.1490E+02  0.5086E+02
    -17.696  0.1487E+02  0.5108E+02
    -17.682  0.1481E+02  0.5130E+02
    -17.667  0.1473E+02  0.5152E+02
    -17.652  0.1463E+02  0.5173E+02
    -17.637  0.1452E+02  0.5195E+02
    -17.623  0.1439E+02  0.5216E+02
    -17.608  0.1426E+02  0.5237E+02
    -17.593  0.1413E+02  0.5258E+02
    -17.578  0.1401E+02  0.5279E+02
    -17.564  0.1389E+02  0.5299E+02
    -17.549  0.1379E+02  0.5319E+02
    -17.534  0.1371E+02  0.5340E+02
    -17.520  0.1366E+02  0.5360E+02
    -17.505  0.1363E+02  0.5380E+02
    -17.490  0.1363E+02  0.5400E+02
    -17.475  0.1367E+02  0.5420E+02
    -17.461  0.1373E+02  0.5440E+02
    -17.446  0.1383E+02  0.5461E+02
    -17.431  0.1397E+02  0.5481E+02
    -17.416  0.1412E+02  0.5502E+02
    -17.402  0.1431E+02  0.5523E+02
    -17.387  0.1451E+02  0.5545E+02
    -17.372  0.1473E+02  0.5566E+02
    -17.357  0.1496E+02  0.5588E+02
    -17.343  0.1520E+02  0.5611E+02
    -17.328  0.1543E+02  0.5633E+02
    -17.313  0.1564E+02  0.5657E+02
    -17.298  0.1585E+02  0.5680E+02
    -17.284  0.1602E+02  0.5704E+02
    -17.269  0.1617E+02  0.5727E+02
    -17.254  0.1629E+02  0.5751E+02
    -17.239  0.1637E+02  0.5776E+02
    -17.225  0.1641E+02  0.5800E+02
    -17.210  0.1641E+02  0.5824E+02
    -17.195  0.1638E+02  0.5848E+02
    -17.181  0.1630E+02  0.5872E+02
    -17.166  0.1620E+02  0.5896E+02
    -17.151  0.1606E+02  0.5920E+02
    -17.136  0.1590E+02  0.5943E+02
    -17.122  0.1573E+02  0.5966E+02
    -17.107  0.1554E+02  0.5989E+02
    -17.092  0.1535E+02  0.6012E+02
    -17.077  0.1516E+02  0.6034E+02
    -17.063  0.1498E+02  0.6056E+02
    -17.048  0.1480E+02  0.6078E+02
    -17.033  0.1464E+02  0.6100E+02
    -17.018  0.1450E+02  0.6121E+02
    -17.004  0.1437E+02  0.6142E+02
    -16.989  0.1426E+02  0.6163E+02
    -16.974  0.1416E+02  0.6184E+02
    -16.959  0.1407E+02  0.6205E+02
    -16.945  0.1400E+02  0.6225E+02
    -16.930  0.1394E+02  0.6246E+02
    -16.915  0.1388E+02  0.6266E+02
    -16.900  0.1383E+02  0.6287E+02
    -16.886  0.1379E+02  0.6307E+02
    -16.871  0.1374E+02  0.6327E+02
    -16.856  0.1371E+02  0.6348E+02
    -16.842  0.1367E+02  0.6368E+02
    -16.827  0.1364E+02  0.6388E+02
    -16.812  0.1361E+02  0.6408E+02
    -16.797  0.1359E+02  0.6428E+02
    -16.783  0.1358E+02  0.6448E+02
    -16.768  0.1357E+02  0.6468E+02
    -16.753  0.1358E+02  0.6488E+02
    -16.738  0.1359E+02  0.6508E+02
    -16.724  0.1362E+02  0.6528E+02
    -16.709  0.1366E+02  0.6548E+02
    -16.694  0.1370E+02  0.6568E+02
    -16.679  0.1376E+02  0.6589E+02
    -16.665  0.1383E+02  0.6609E+02
    -16.650  0.1391E+02  0.6630E+02
    -16.635  0.1400E+02  0.6650E+02
    -16.620  0.1409E+02  0.6671E+02
    -16.606  0.1418E+02  0.6692E+02
    -16.591  0.1428E+02  0.6713E+02
    -16.576  0.1438E+02  0.6734E+02
    -16.561  0.1447E+02  0.6755E+02
    -16.547  0.1455E+02  0.6777E+02
    -16.532  0.1462E+02  0.6798E+02
    -16.517  0.1468E+02  0.6820E+02
    -16.503  0.1472E+02  0.6842E+02
    -16.488  0.1474E+02  0.6863E+02
    -16.473  0.1474E+02  0.6885E+02
    -16.458  0.1472E+02  0.6907E+02
    -16.444  0.1468E+02  0.6929E+02
    -16.429  0.1462E+02  0.6950E+02
    -16.414  0.1453E+02  0.6972E+02
    -16.399  0.1442E+02  0.6993E+02
    -16.385  0.1430E+02  0.7014E+02
    -16.370  0.1415E+02  0.7035E+02
    -16.355  0.1400E+02  0.7055E+02
    -16.340  0.1384E+02  0.7076E+02
    -16.326  0.1367E+02  0.7096E+02
    -16.311  0.1350E+02  0.7116E+02
    -16.296  0.1333E+02  0.7135E+02
    -16.281  0.1317E+02  0.7155E+02
    -16.267  0.1301E+02  0.7174E+02
    -16.252  0.1287E+02  0.7193E+02
    -16.237  0.1274E+02  0.7212E+02
    -16.222  0.1262E+02  0.7230E+02
    -16.208  0.1253E+02  0.7249E+02
    -16.193  0.1245E+02  0.7267E+02
    -16.178  0.1240E+02  0.7285E+02
    -16.164  0.1237E+02  0.7304E+02
    -16.149  0.1237E+02  0.7322E+02
    -16.134  0.1239E+02  0.7340E+02
    -16.119  0.1244E+02  0.7359E+02
    -16.105  0.1252E+02  0.7377E+02
    -16.090  0.1261E+02  0.7396E+02
    -16.075  0.1273E+02  0.7414E+02
    -16.060  0.1286E+02  0.7433E+02
    -16.046  0.1301E+02  0.7452E+02
    -16.031  0.1316E+02  0.7472E+02
    -16.016  0.1332E+02  0.7491E+02
    -16.001  0.1348E+02  0.7511E+02
    -15.987  0.1362E+02  0.7531E+02
    -15.972  0.1375E+02  0.7552E+02
    -15.957  0.1386E+02  0.7572E+02
    -15.942  0.1395E+02  0.7593E+02
    -15.928  0.1400E+02  0.7613E+02
    -15.913  0.1403E+02  0.7634E+02
    -15.898  0.1401E+02  0.7655E+02
    -15.883  0.1396E+02  0.7675E+02
    -15.869  0.1388E+02  0.7696E+02
    -15.854  0.1376E+02  0.7716E+02
    -15.839  0.1361E+02  0.7736E+02
    -15.825  0.1344E+02  0.7756E+02
    -15.810  0.1324E+02  0.7775E+02
    -15.795  0.1303E+02  0.7795E+02
    -15.780  0.1280E+02  0.7813E+02
    -15.766  0.1257E+02  0.7832E+02
    -15.751  0.1234E+02  0.7850E+02
    -15.736  0.1212E+02  0.7868E+02
    -15.721  0.1190E+02  0.7886E+02
    -15.707  0.1171E+02  0.7903E+02
    -15.692  0.1153E+02  0.7920E+02
    -15.677  0.1137E+02  0.7937E+02
    -15.662  0.1124E+02  0.7953E+02
    -15.648  0.1113E+02  0.7970E+02
    -15.633  0.1104E+02  0.7986E+02
    -15.618  0.1097E+02  0.8002E+02
    -15.603  0.1092E+02  0.8018E+02
    -15.589  0.1089E+02  0.8034E+02
    -15.574  0.1087E+02  0.8050E+02
    -15.559  0.1087E+02  0.8066E+02
    -15.544  0.1087E+02  0.8082E+02
    -15.530  0.1088E+02  0.8098E+02
    -15.515  0.1090E+02  0.8114E+02
    -15.500  0.1092E+02  0.8130E+02
    -15.485  0.1094E+02  0.8147E+02
    -15.471  0.1097E+02  0.8163E+02
    -15.456  0.1100E+02  0.8179E+02
    -15.441  0.1103E+02  0.8195E+02
    -15.427  0.1108E+02  0.8211E+02
    -15.412  0.1113E+02  0.8228E+02
    -15.397  0.1120E+02  0.8244E+02
    -15.382  0.1128E+02  0.8261E+02
    -15.368  0.1138E+02  0.8278E+02
    -15.353  0.1149E+02  0.8295E+02
    -15.338  0.1162E+02  0.8312E+02
    -15.323  0.1177E+02  0.8329E+02
    -15.309  0.1193E+02  0.8347E+02
    -15.294  0.1212E+02  0.8365E+02
    -15.279  0.1231E+02  0.8383E+02
    -15.264  0.1253E+02  0.8401E+02
    -15.250  0.1275E+02  0.8420E+02
    -15.235  0.1298E+02  0.8439E+02
    -15.220  0.1322E+02  0.8459E+02
    -15.205  0.1346E+02  0.8479E+02
    -15.191  0.1370E+02  0.8499E+02
    -15.176  0.1394E+02  0.8519E+02
    -15.161  0.1417E+02  0.8540E+02
    -15.146  0.1439E+02  0.8561E+02
    -15.132  0.1460E+02  0.8583E+02
    -15.117  0.1480E+02  0.8605E+02
    -15.102  0.1498E+02  0.8627E+02
    -15.088  0.1514E+02  0.8649E+02
    -15.073  0.1529E+02  0.8672E+02
    -15.058  0.1541E+02  0.8694E+02
    -15.043  0.1551E+02  0.8717E+02
    -15.029  0.1559E+02  0.8740E+02
    -15.014  0.1564E+02  0.8763E+02
    -14.999  0.1568E+02  0.8786E+02
    -14.984  0.1570E+02  0.8809E+02
    -14.970  0.1570E+02  0.8833E+02
    -14.955  0.1569E+02  0.8856E+02
    -14.940  0.1566E+02  0.8879E+02
    -14.925  0.1563E+02  0.8902E+02
    -14.911  0.1559E+02  0.8925E+02
    -14.896  0.1555E+02  0.8948E+02
    -14.881  0.1550E+02  0.8971E+02
    -14.866  0.1547E+02  0.8993E+02
    -14.852  0.1543E+02  0.9016E+02
    -14.837  0.1540E+02  0.9039E+02
    -14.822  0.1539E+02  0.9061E+02
    -14.807  0.1537E+02  0.9084E+02
    -14.793  0.1537E+02  0.9107E+02
    -14.778  0.1538E+02  0.9129E+02
    -14.763  0.1539E+02  0.9152E+02
    -14.749  0.1541E+02  0.9175E+02
    -14.734  0.1543E+02  0.9198E+02
    -14.719  0.1546E+02  0.9220E+02
    -14.704  0.1548E+02  0.9243E+02
    -14.690  0.1551E+02  0.9266E+02
    -14.675  0.1553E+02  0.9289E+02
    -14.660  0.1555E+02  0.9312E+02
    -14.645  0.1556E+02  0.9335E+02
    -14.631  0.1557E+02  0.9358E+02
    -14.616  0.1557E+02  0.9381E+02
    -14.601  0.1557E+02  0.9404E+02
    -14.586  0.1556E+02  0.9427E+02
    -14.572  0.1555E+02  0.9450E+02
    -14.557  0.1554E+02  0.9472E+02
    -14.542  0.1553E+02  0.9495E+02
    -14.527  0.1553E+02  0.9518E+02
    -14.513  0.1553E+02  0.9541E+02
    -14.498  0.1554E+02  0.9564E+02
    -14.483  0.1556E+02  0.9587E+02
    -14.468  0.1559E+02  0.9610E+02
    -14.454  0.1565E+02  0.9633E+02
    -14.439  0.1571E+02  0.9656E+02
    -14.424  0.1580E+02  0.9679E+02
    -14.410  0.1590E+02  0.9703E+02
    -14.395  0.1602E+02  0.9726E+02
    -14.380  0.1614E+02  0.9750E+02
    -14.365  0.1628E+02  0.9774E+02
    -14.351  0.1643E+02  0.9799E+02
    -14.336  0.1657E+02  0.9823E+02
    -14.321  0.1671E+02  0.9848E+02
    -14.306  0.1685E+02  0.9872E+02
    -14.292  0.1697E+02  0.9897E+02
    -14.277  0.1707E+02  0.9923E+02
    -14.262  0.1715E+02  0.9948E+02
    -14.247  0.1721E+02  0.9973E+02
    -14.233  0.1724E+02  0.9999E+02
    -14.218  0.1724E+02  0.1002E+03
    -14.203  0.1721E+02  0.1005E+03
    -14.188  0.1714E+02  0.1007E+03
    -14.174  0.1705E+02  0.1010E+03
    -14.159  0.1693E+02  0.1012E+03
    -14.144  0.1678E+02  0.1015E+03
    -14.129  0.1660E+02  0.1017E+03
    -14.115  0.1640E+02  0.1020E+03
    -14.100  0.1618E+02  0.1022E+03
    -14.085  0.1595E+02  0.1025E+03
    -14.071  0.1571E+02  0.1027E+03
    -14.056  0.1545E+02  0.1029E+03
    -14.041  0.1520E+02  0.1031E+03
    -14.026  0.1494E+02  0.1034E+03
    -14.012  0.1468E+02  0.1036E+03
    -13.997  0.1443E+02  0.1038E+03
    -13.982  0.1419E+02  0.1040E+03
    -13.967  0.1397E+02  0.1042E+03
    -13.953  0.1376E+02  0.1044E+03
    -13.938  0.1358E+02  0.1046E+03
    -13.923  0.1342E+02  0.1048E+03
    -13.908  0.1328E+02  0.1050E+03
    -13.894  0.1318E+02  0.1052E+03
    -13.879  0.1311E+02  0.1054E+03
    -13.864  0.1307E+02  0.1056E+03
    -13.849  0.1307E+02  0.1058E+03
    -13.835  0.1310E+02  0.1060E+03
    -13.820  0.1316E+02  0.1062E+03
    -13.805  0.1326E+02  0.1064E+03
    -13.790  0.1338E+02  0.1066E+03
    -13.776  0.1352E+02  0.1068E+03
    -13.761  0.1368E+02  0.1070E+03
    -13.746  0.1386E+02  0.1072E+03
    -13.732  0.1404E+02  0.1074E+03
    -13.717  0.1422E+02  0.1076E+03
    -13.702  0.1439E+02  0.1078E+03
    -13.687  0.1455E+02  0.1080E+03
    -13.673  0.1469E+02  0.1082E+03
    -13.658  0.1480E+02  0.1084E+03
    -13.643  0.1488E+02  0.1087E+03
    -13.628  0.1493E+02  0.1089E+03
    -13.614  0.1494E+02  0.1091E+03
    -13.599  0.1491E+02  0.1093E+03
    -13.584  0.1484E+02  0.1095E+03
    -13.569  0.1473E+02  0.1097E+03
    -13.555  0.1460E+02  0.1100E+03
    -13.540  0.1443E+02  0.1102E+03
    -13.525  0.1424E+02  0.1104E+03
    -13.510  0.1404E+02  0.1106E+03
    -13.496  0.1383E+02  0.1108E+03
    -13.481  0.1362E+02  0.1110E+03
    -13.466  0.1342E+02  0.1112E+03
    -13.451  0.1323E+02  0.1114E+03
    -13.437  0.1307E+02  0.1116E+03
    -13.422  0.1293E+02  0.1118E+03
    -13.407  0.1282E+02  0.1120E+03
    -13.392  0.1275E+02  0.1122E+03
    -13.378  0.1273E+02  0.1123E+03
    -13.363  0.1274E+02  0.1125E+03
    -13.348  0.1279E+02  0.1127E+03
    -13.334  0.1288E+02  0.1129E+03
    -13.319  0.1301E+02  0.1131E+03
    -13.304  0.1317E+02  0.1133E+03
    -13.289  0.1336E+02  0.1135E+03
    -13.275  0.1357E+02  0.1137E+03
    -13.260  0.1380E+02  0.1139E+03
    -13.245  0.1405E+02  0.1141E+03
    -13.230  0.1429E+02  0.1143E+03
    -13.216  0.1454E+02  0.1145E+03
    -13.201  0.1479E+02  0.1147E+03
    -13.186  0.1502E+02  0.1150E+03
    -13.171  0.1523E+02  0.1152E+03
    -13.157  0.1543E+02  0.1154E+03
    -13.142  0.1560E+02  0.1156E+03
    -13.127  0.1574E+02  0.1159E+03
    -13.112  0.1586E+02  0.1161E+03
    -13.098  0.1596E+02  0.1163E+03
    -13.083  0.1603E+02  0.1166E+03
    -13.068  0.1607E+02  0.1168E+03
    -13.053  0.1610E+02  0.1171E+03
    -13.039  0.1611E+02  0.1173E+03
    -13.024  0.1611E+02  0.1175E+03
    -13.009  0.1610E+02  0.1178E+03
    -12.995  0.1609E+02  0.1180E+03
    -12.980  0.1608E+02  0.1182E+03
    -12.965  0.1608E+02  0.1185E+03
    -12.950  0.1608E+02  0.1187E+03
    -12.936  0.1609E+02  0.1190E+03
    -12.921  0.1611E+02  0.1192E+03
    -12.906  0.1615E+02  0.1194E+03
    -12.891  0.1619E+02  0.1197E+03
    -12.877  0.1625E+02  0.1199E+03
    -12.862  0.1631E+02  0.1201E+03
    -12.847  0.1637E+02  0.1204E+03
    -12.832  0.1643E+02  0.1206E+03
    -12.818  0.1649E+02  0.1209E+03
    -12.803  0.1653E+02  0.1211E+03
    -12.788  0.1656E+02  0.1214E+03
    -12.773  0.1657E+02  0.1216E+03
    -12.759  0.1655E+02  0.1219E+03
    -12.744  0.1650E+02  0.1221E+03
    -12.729  0.1643E+02  0.1223E+03
    -12.714  0.1632E+02  0.1226E+03
    -12.700  0.1618E+02  0.1228E+03
    -12.685  0.1600E+02  0.1231E+03
    -12.670  0.1580E+02  0.1233E+03
    -12.656  0.1557E+02  0.1235E+03
    -12.641  0.1531E+02  0.1237E+03
    -12.626  0.1504E+02  0.1240E+03
    -12.611  0.1475E+02  0.1242E+03
    -12.597  0.1446E+02  0.1244E+03
    -12.582  0.1417E+02  0.1246E+03
    -12.567  0.1389E+02  0.1248E+03
    -12.552  0.1362E+02  0.1250E+03
    -12.538  0.1337E+02  0.1252E+03
    -12.523  0.1315E+02  0.1254E+03
    -12.508  0.1296E+02  0.1256E+03
    -12.493  0.1280E+02  0.1258E+03
    -12.479  0.1268E+02  0.1260E+03
    -12.464  0.1259E+02  0.1261E+03
    -12.449  0.1255E+02  0.1263E+03
    -12.434  0.1255E+02  0.1265E+03
    -12.420  0.1259E+02  0.1267E+03
    -12.405  0.1267E+02  0.1269E+03
    -12.390  0.1279E+02  0.1271E+03
    -12.375  0.1295E+02  0.1273E+03
    -12.361  0.1314E+02  0.1275E+03
    -12.346  0.1336E+02  0.1277E+03
    -12.331  0.1361E+02  0.1279E+03
    -12.317  0.1387E+02  0.1281E+03
    -12.302  0.1415E+02  0.1283E+03
    -12.287  0.1444E+02  0.1285E+03
    -12.272  0.1474E+02  0.1287E+03
    -12.258  0.1502E+02  0.1289E+03
    -12.243  0.1530E+02  0.1292E+03
    -12.228  0.1555E+02  0.1294E+03
    -12.213  0.1578E+02  0.1296E+03
    -12.199  0.1598E+02  0.1298E+03
    -12.184  0.1614E+02  0.1301E+03
    -12.169  0.1626E+02  0.1303E+03
    -12.154  0.1633E+02  0.1306E+03
    -12.140  0.1636E+02  0.1308E+03
    -12.125  0.1635E+02  0.1310E+03
    -12.110  0.1630E+02  0.1313E+03
    -12.095  0.1620E+02  0.1315E+03
    -12.081  0.1607E+02  0.1318E+03
    -12.066  0.1590E+02  0.1320E+03
    -12.051  0.1571E+02  0.1322E+03
    -12.036  0.1551E+02  0.1325E+03
    -12.022  0.1528E+02  0.1327E+03
    -12.007  0.1505E+02  0.1329E+03
    -11.992  0.1482E+02  0.1331E+03
    -11.978  0.1459E+02  0.1333E+03
    -11.963  0.1438E+02  0.1336E+03
    -11.948  0.1418E+02  0.1338E+03
    -11.933  0.1400E+02  0.1340E+03
    -11.919  0.1384E+02  0.1342E+03
    -11.904  0.1370E+02  0.1344E+03
    -11.889  0.1359E+02  0.1346E+03
    -11.874  0.1351E+02  0.1348E+03
    -11.860  0.1346E+02  0.1350E+03