  95  95   0   0
  0.2646953E+02  0.1704000E-08  0.1475707E-08  0.1000000E-08  0.5000000E-15
  1.000000000000000E-004
  CAR 
 unknown system                          
      6.56740113    -22.83311740 2000     -1.37512091      1.00000000
    -22.833  0.0000E+00  0.0000E+00
    -22.818  0.0000E+00  0.0000E+00
    -22.804  0.0000E+00  0.0000E+00
    -22.789  0.0000E+00  0.0000E+00
    -22.774  0.0000E+00  0.0000E+00
    -22.760  0.0000E+00  0.0000E+00
    -22.745  0.0000E+00  0.0000E+00
    -22.730  0.0000E+00  0.0000E+00
    -22.715  0.0000E+00  0.0000E+00
    -22.701  0.0000E+00  0.0000E+00
    -22.686  0.0000E+00  0.0000E+00
    -22.671  0.0000E+00  0.0000E+00
    -22.657  0.0000E+00  0.0000E+00
    -22.642  0.0000E+00  0.0000E+00
    -22.627  0.0000E+00  0.0000E+00
    -22.613  0.0000E+00  0.0000E+00
    -22.598  0.0000E+00  0.0000E+00
    -22.583  0.0000E+00  0.0000E+00
    -22.568  0.0000E+00  0.0000E+00
    -22.554  0.0000E+00  0.0000E+00
    -22.539  0.0000E+00  0.0000E+00
    -22.524  0.0000E+00  0.0000E+00
    -22.510  0.0000E+00  0.0000E+00
    -22.495  0.0000E+00  0.0000E+00
    -22.480  0.0000E+00  0.0000E+00
    -22.465  0.0000E+00  0.0000E+00
    -22.451  0.0000E+00  0.0000E+00
    -22.436  0.0000E+00  0.0000E+00
    -22.421  0.0000E+00  0.0000E+00
    -22.407  0.0000E+00  0.0000E+00
    -22.392  0.0000E+00  0.0000E+00
    -22.377  0.0000E+00  0.0000E+00
    -22.362  0.0000E+00  0.0000E+00
    -22.348  0.0000E+00  0.0000E+00
    -22.333  0.0000E+00  0.0000E+00
    -22.318  0.0000E+00  0.0000E+00
    -22.304  0.0000E+00  0.0000E+00
    -22.289  0.0000E+00  0.0000E+00
    -22.274  0.0000E+00  0.0000E+00
    -22.260  0.0000E+00  0.0000E+00
    -22.245  0.0000E+00  0.0000E+00
    -22.230  0.0000E+00  0.0000E+00
    -22.215  0.0000E+00  0.0000E+00
    -22.201  0.0000E+00  0.0000E+00
    -22.186  0.0000E+00  0.0000E+00
    -22.171  0.0000E+00  0.0000E+00
    -22.157  0.0000E+00  0.0000E+00
    -22.142  0.0000E+00  0.0000E+00
    -22.127  0.0000E+00  0.0000E+00
    -22.112  0.0000E+00  0.0000E+00
    -22.098  0.0000E+00  0.0000E+00
    -22.083  0.0000E+00  0.0000E+00
    -22.068  0.0000E+00  0.0000E+00
    -22.054  0.0000E+00  0.0000E+00
    -22.039  0.0000E+00  0.0000E+00
    -22.024  0.0000E+00  0.0000E+00
    -22.009  0.8387E-15  0.1234E-16
    -21.995  0.8387E-15  0.2467E-16
    -21.980  0.4194E-14  0.8635E-16
    -21.965  0.6710E-14  0.1850E-15
    -21.951  0.1510E-13  0.4071E-15
    -21.936  0.3690E-13  0.9499E-15
    -21.921  0.8471E-13  0.2196E-14
    -21.907  0.1862E-12  0.4934E-14
    -21.892  0.4127E-12  0.1100E-13
    -21.877  0.9142E-12  0.2445E-13
    -21.862  0.1981E-11  0.5359E-13
    -21.848  0.4267E-11  0.1163E-12
    -21.833  0.9084E-11  0.2499E-12
    -21.818  0.1915E-10  0.5316E-12
    -21.804  0.3994E-10  0.1119E-11
    -21.789  0.8240E-10  0.2331E-11
    -21.774  0.1683E-09  0.4806E-11
    -21.759  0.3400E-09  0.9807E-11
    -21.745  0.6799E-09  0.1981E-10
    -21.730  0.1345E-08  0.3959E-10
    -21.715  0.2634E-08  0.7834E-10
    -21.701  0.5105E-08  0.1534E-09
    -21.686  0.9789E-08  0.2974E-09
    -21.671  0.1857E-07  0.5706E-09
    -21.657  0.3488E-07  0.1084E-08
    -21.642  0.6482E-07  0.2037E-08
    -21.627  0.1192E-06  0.3790E-08
    -21.612  0.2170E-06  0.6982E-08
    -21.598  0.3908E-06  0.1273E-07
    -21.583  0.6966E-06  0.2298E-07
    -21.568  0.1229E-05  0.4105E-07
    -21.554  0.2146E-05  0.7261E-07
    -21.539  0.3707E-05  0.1271E-06
    -21.524  0.6339E-05  0.2204E-06
    -21.509  0.1073E-04  0.3782E-06
    -21.495  0.1797E-04  0.6424E-06
    -21.480  0.2979E-04  0.1081E-05
    -21.465  0.4887E-04  0.1799E-05
    -21.451  0.7936E-04  0.2967E-05
    -21.436  0.1275E-03  0.4842E-05
    -21.421  0.2029E-03  0.7826E-05
    -21.406  0.3194E-03  0.1252E-04
    -21.392  0.4978E-03  0.1985E-04
    -21.377  0.7678E-03  0.3114E-04
    -21.362  0.1172E-02  0.4838E-04
    -21.348  0.1771E-02  0.7443E-04
    -21.333  0.2650E-02  0.1134E-03
    -21.318  0.3923E-02  0.1711E-03
    -21.304  0.5750E-02  0.2557E-03
    -21.289  0.8342E-02  0.3784E-03
    -21.274  0.1198E-01  0.5546E-03
    -21.259  0.1703E-01  0.8051E-03
    -21.245  0.2398E-01  0.1158E-02
    -21.230  0.3341E-01  0.1649E-02
    -21.215  0.4608E-01  0.2327E-02
    -21.201  0.6294E-01  0.3253E-02
    -21.186  0.8510E-01  0.4504E-02
    -21.171  0.1139E+00  0.6180E-02
    -21.156  0.1510E+00  0.8401E-02
    -21.142  0.1983E+00  0.1132E-01
    -21.127  0.2577E+00  0.1511E-01
    -21.112  0.3318E+00  0.1999E-01
    -21.098  0.4229E+00  0.2621E-01
    -21.083  0.5340E+00  0.3406E-01
    -21.068  0.6679E+00  0.4388E-01
    -21.053  0.8274E+00  0.5605E-01
    -21.039  0.1015E+01  0.7099E-01
    -21.024  0.1235E+01  0.8915E-01
    -21.009  0.1488E+01  0.1110E+00
    -20.995  0.1776E+01  0.1372E+00
    -20.980  0.2102E+01  0.1681E+00
    -20.965  0.2465E+01  0.2043E+00
    -20.951  0.2866E+01  0.2465E+00
    -20.936  0.3303E+01  0.2950E+00
    -20.921  0.3776E+01  0.3506E+00
    -20.906  0.4281E+01  0.4136E+00
    -20.892  0.4815E+01  0.4844E+00
    -20.877  0.5374E+01  0.5634E+00
    -20.862  0.5951E+01  0.6509E+00
    -20.848  0.6542E+01  0.7472E+00
    -20.833  0.7140E+01  0.8522E+00
    -20.818  0.7740E+01  0.9660E+00
    -20.803  0.8333E+01  0.1089E+01
    -20.789  0.8916E+01  0.1220E+01
    -20.774  0.9480E+01  0.1359E+01
    -20.759  0.1002E+02  0.1507E+01
    -20.745  0.1054E+02  0.1662E+01
    -20.730  0.1102E+02  0.1824E+01
    -20.715  0.1147E+02  0.1992E+01
    -20.701  0.1188E+02  0.2167E+01
    -20.686  0.1226E+02  0.2347E+01
    -20.671  0.1260E+02  0.2533E+01
    -20.656  0.1290E+02  0.2723E+01
    -20.642  0.1317E+02  0.2916E+01
    -20.627  0.1340E+02  0.3113E+01
    -20.612  0.1360E+02  0.3313E+01
    -20.598  0.1378E+02  0.3516E+01
    -20.583  0.1393E+02  0.3721E+01
    -20.568  0.1406E+02  0.3928E+01
    -20.553  0.1416E+02  0.4136E+01
    -20.539  0.1425E+02  0.4346E+01
    -20.524  0.1433E+02  0.4556E+01
    -20.509  0.1440E+02  0.4768E+01
    -20.495  0.1446E+02  0.4981E+01
    -20.480  0.1451E+02  0.5194E+01
    -20.465  0.1455E+02  0.5408E+01
    -20.450  0.1459E+02  0.5623E+01
    -20.436  0.1462E+02  0.5838E+01
    -20.421  0.1465E+02  0.6053E+01
    -20.406  0.1467E+02  0.6269E+01
    -20.392  0.1468E+02  0.6485E+01
    -20.377  0.1469E+02  0.6701E+01
    -20.362  0.1469E+02  0.6917E+01
    -20.348  0.1469E+02  0.7133E+01
    -20.333  0.1468E+02  0.7349E+01
    -20.318  0.1467E+02  0.7565E+01
    -20.303  0.1464E+02  0.7780E+01
    -20.289  0.1462E+02  0.7995E+01
    -20.274  0.1459E+02  0.8209E+01
    -20.259  0.1455E+02  0.8423E+01
    -20.245  0.1451E+02  0.8637E+01
    -20.230  0.1447E+02  0.8850E+01
    -20.215  0.1444E+02  0.9062E+01
    -20.200  0.1440E+02  0.9274E+01
    -20.186  0.1437E+02  0.9485E+01
    -20.171  0.1434E+02  0.9696E+01
    -20.156  0.1432E+02  0.9907E+01
    -20.142  0.1432E+02  0.1012E+02
    -20.127  0.1432E+02  0.1033E+02
    -20.112  0.1433E+02  0.1054E+02
    -20.098  0.1435E+02  0.1075E+02
    -20.083  0.1439E+02  0.1096E+02
    -20.068  0.1443E+02  0.1117E+02
    -20.053  0.1449E+02  0.1139E+02
    -20.039  0.1455E+02  0.1160E+02
    -20.024  0.1461E+02  0.1182E+02
    -20.009  0.1468E+02  0.1203E+02
    -19.995  0.1475E+02  0.1225E+02
    -19.980  0.1482E+02  0.1247E+02
    -19.965  0.1488E+02  0.1269E+02
    -19.950  0.1494E+02  0.1291E+02
    -19.936  0.1498E+02  0.1313E+02
    -19.921  0.1502E+02  0.1335E+02
    -19.906  0.1504E+02  0.1357E+02
    -19.892  0.1505E+02  0.1379E+02
    -19.877  0.1505E+02  0.1401E+02
    -19.862  0.1504E+02  0.1423E+02
    -19.847  0.1501E+02  0.1445E+02
    -19.833  0.1498E+02  0.1467E+02
    -19.818  0.1494E+02  0.1489E+02
    -19.803  0.1489E+02  0.1511E+02
    -19.789  0.1483E+02  0.1533E+02
    -19.774  0.1477E+02  0.1555E+02
    -19.759  0.1470E+02  0.1576E+02
    -19.745  0.1463E+02  0.1598E+02
    -19.730  0.1456E+02  0.1619E+02
    -19.715  0.1448E+02  0.1640E+02
    -19.700  0.1441E+02  0.1662E+02
    -19.686  0.1434E+02  0.1683E+02
    -19.671  0.1427E+02  0.1704E+02
    -19.656  0.1420E+02  0.1725E+02
    -19.642  0.1414E+02  0.1745E+02
    -19.627  0.1409E+02  0.1766E+02
    -19.612  0.1405E+02  0.1787E+02
    -19.597  0.1402E+02  0.1807E+02
    -19.583  0.1401E+02  0.1828E+02
    -19.568  0.1402E+02  0.1849E+02
    -19.553  0.1405E+02  0.1869E+02
    -19.539  0.1410E+02  0.1890E+02
    -19.524  0.1418E+02  0.1911E+02
    -19.509  0.1428E+02  0.1932E+02
    -19.494  0.1441E+02  0.1953E+02
    -19.480  0.1456E+02  0.1975E+02
    -19.465  0.1473E+02  0.1996E+02
    -19.450  0.1492E+02  0.2018E+02
    -19.436  0.1513E+02  0.2040E+02
    -19.421  0.1533E+02  0.2063E+02
    -19.406  0.1554E+02  0.2086E+02
    -19.392  0.1573E+02  0.2109E+02
    -19.377  0.1591E+02  0.2132E+02
    -19.362  0.1606E+02  0.2156E+02
    -19.347  0.1618E+02  0.2180E+02
    -19.333  0.1625E+02  0.2204E+02
    -19.318  0.1628E+02  0.2228E+02
    -19.303  0.1625E+02  0.2252E+02
    -19.289  0.1617E+02  0.2275E+02
    -19.274  0.1603E+02  0.2299E+02
    -19.259  0.1583E+02  0.2322E+02
    -19.244  0.1559E+02  0.2345E+02
    -19.230  0.1530E+02  0.2368E+02
    -19.215  0.1498E+02  0.2390E+02
    -19.200  0.1463E+02  0.2411E+02
    -19.186  0.1426E+02  0.2432E+02
    -19.171  0.1390E+02  0.2453E+02
    -19.156  0.1355E+02  0.2472E+02
    -19.142  0.1322E+02  0.2492E+02
    -19.127  0.1294E+02  0.2511E+02
    -19.112  0.1271E+02  0.2530E+02
    -19.097  0.1254E+02  0.2548E+02
    -19.083  0.1244E+02  0.2566E+02
    -19.068  0.1242E+02  0.2585E+02
    -19.053  0.1248E+02  0.2603E+02
    -19.039  0.1262E+02  0.2622E+02
    -19.024  0.1284E+02  0.2640E+02
    -19.009  0.1313E+02  0.2660E+02
    -18.994  0.1347E+02  0.2680E+02
    -18.980  0.1387E+02  0.2700E+02
    -18.965  0.1430E+02  0.2721E+02
    -18.950  0.1475E+02  0.2743E+02
    -18.936  0.1520E+02  0.2765E+02
    -18.921  0.1564E+02  0.2788E+02
    -18.906  0.1605E+02  0.2812E+02
    -18.891  0.1642E+02  0.2836E+02
    -18.877  0.1674E+02  0.2860E+02
    -18.862  0.1700E+02  0.2885E+02
    -18.847  0.1718E+02  0.2911E+02
    -18.833  0.1729E+02  0.2936E+02
    -18.818  0.1734E+02  0.2962E+02
    -18.803  0.1731E+02  0.2987E+02
    -18.789  0.1721E+02  0.3012E+02
    -18.774  0.1706E+02  0.3037E+02
    -18.759  0.1686E+02  0.3062E+02
    -18.744  0.1661E+02  0.3087E+02
    -18.730  0.1634E+02  0.3111E+02
    -18.715  0.1606E+02  0.3134E+02
    -18.700  0.1576E+02  0.3158E+02
    -18.686  0.1546E+02  0.3180E+02
    -18.671  0.1518E+02  0.3203E+02
    -18.656  0.1491E+02  0.3225E+02
    -18.641  0.1466E+02  0.3246E+02
    -18.627  0.1443E+02  0.3267E+02
    -18.612  0.1423E+02  0.3288E+02
    -18.597  0.1406E+02  0.3309E+02
    -18.583  0.1391E+02  0.3329E+02
    -18.568  0.1379E+02  0.3350E+02
    -18.553  0.1369E+02  0.3370E+02
    -18.538  0.1361E+02  0.3390E+02
    -18.524  0.1354E+02  0.3410E+02
    -18.509  0.1349E+02  0.3430E+02
    -18.494  0.1346E+02  0.3449E+02
    -18.480  0.1343E+02  0.3469E+02
    -18.465  0.1342E+02  0.3489E+02
    -18.450  0.1342E+02  0.3509E+02
    -18.436  0.1343E+02  0.3528E+02
    -18.421  0.1346E+02  0.3548E+02
    -18.406  0.1350E+02  0.3568E+02
    -18.391  0.1355E+02  0.3588E+02
    -18.377  0.1363E+02  0.3608E+02
    -18.362  0.1373E+02  0.3628E+02
    -18.347  0.1385E+02  0.3649E+02
    -18.333  0.1400E+02  0.3669E+02
    -18.318  0.1417E+02  0.3690E+02
    -18.303  0.1436E+02  0.3711E+02
    -18.288  0.1458E+02  0.3733E+02
    -18.274  0.1482E+02  0.3754E+02
    -18.259  0.1507E+02  0.3777E+02
    -18.244  0.1534E+02  0.3799E+02
    -18.230  0.1561E+02  0.3822E+02
    -18.215  0.1588E+02  0.3845E+02
    -18.200  0.1615E+02  0.3869E+02
    -18.186  0.1641E+02  0.3893E+02
    -18.171  0.1666E+02  0.3918E+02
    -18.156  0.1688E+02  0.3943E+02
    -18.141  0.1708E+02  0.3968E+02
    -18.127  0.1724E+02  0.3993E+02
    -18.112  0.1737E+02  0.4019E+02
    -18.097  0.1746E+02  0.4044E+02
    -18.083  0.1752E+02  0.4070E+02
    -18.068  0.1753E+02  0.4096E+02
    -18.053  0.1750E+02  0.4122E+02
    -18.038  0.1743E+02  0.4147E+02
    -18.024  0.1732E+02  0.4173E+02
    -18.009  0.1718E+02  0.4198E+02
    -17.994  0.1700E+02  0.4223E+02
    -17.980  0.1678E+02  0.4248E+02
    -17.965  0.1654E+02  0.4272E+02
    -17.950  0.1627E+02  0.4296E+02
    -17.935  0.1597E+02  0.4319E+02
    -17.921  0.1565E+02  0.4342E+02
    -17.906  0.1532E+02  0.4365E+02
    -17.891  0.1496E+02  0.4387E+02
    -17.877  0.1460E+02  0.4408E+02
    -17.862  0.1423E+02  0.4429E+02
    -17.847  0.1385E+02  0.4450E+02
    -17.833  0.1348E+02  0.4470E+02
    -17.818  0.1312E+02  0.4489E+02
    -17.803  0.1278E+02  0.4508E+02
    -17.788  0.1247E+02  0.4526E+02
    -17.774  0.1220E+02  0.4544E+02
    -17.759  0.1197E+02  0.4562E+02
    -17.744  0.1179E+02  0.4579E+02
    -17.730  0.1168E+02  0.4596E+02
    -17.715  0.1165E+02  0.4613E+02
    -17.700  0.1169E+02  0.4630E+02
    -17.685  0.1181E+02  0.4648E+02
    -17.671  0.1201E+02  0.4665E+02
    -17.656  0.1229E+02  0.4684E+02
    -17.641  0.1265E+02  0.4702E+02
    -17.627  0.1308E+02  0.4721E+02
    -17.612  0.1357E+02  0.4741E+02
    -17.597  0.1410E+02  0.4762E+02
    -17.582  0.1467E+02  0.4784E+02
    -17.568  0.1525E+02  0.4806E+02
    -17.553  0.1584E+02  0.4829E+02
    -17.538  0.1641E+02  0.4854E+02
    -17.524  0.1695E+02  0.4878E+02
    -17.509  0.1745E+02  0.4904E+02
    -17.494  0.1789E+02  0.4930E+02
    -17.480  0.1826E+02  0.4957E+02
    -17.465  0.1857E+02  0.4985E+02
    -17.450  0.1879E+02  0.5012E+02
    -17.435  0.1894E+02  0.5040E+02
    -17.421  0.1901E+02  0.5068E+02
    -17.406  0.1900E+02  0.5096E+02
    -17.391  0.1891E+02  0.5124E+02
    -17.377  0.1876E+02  0.5151E+02
    -17.362  0.1855E+02  0.5179E+02
    -17.347  0.1829E+02  0.5206E+02
    -17.332  0.1799E+02  0.5232E+02
    -17.318  0.1765E+02  0.5258E+02
    -17.303  0.1729E+02  0.5283E+02
    -17.288  0.1692E+02  0.5308E+02
    -17.274  0.1654E+02  0.5333E+02
    -17.259  0.1616E+02  0.5356E+02
    -17.244  0.1579E+02  0.5380E+02
    -17.230  0.1543E+02  0.5402E+02
    -17.215  0.1509E+02  0.5424E+02
    -17.200  0.1478E+02  0.5446E+02
    -17.185  0.1449E+02  0.5468E+02
    -17.171  0.1424E+02  0.5488E+02
    -17.156  0.1402E+02  0.5509E+02
    -17.141  0.1383E+02  0.5529E+02
    -17.127  0.1368E+02  0.5550E+02
    -17.112  0.1357E+02  0.5570E+02
    -17.097  0.1350E+02  0.5589E+02
    -17.082  0.1347E+02  0.5609E+02
    -17.068  0.1348E+02  0.5629E+02
    -17.053  0.1354E+02  0.5649E+02
    -17.038  0.1363E+02  0.5669E+02
    -17.024  0.1375E+02  0.5689E+02
    -17.009  0.1392E+02  0.5710E+02
    -16.994  0.1411E+02  0.5730E+02
    -16.979  0.1433E+02  0.5751E+02
    -16.965  0.1457E+02  0.5773E+02
    -16.950  0.1482E+02  0.5795E+02
    -16.935  0.1508E+02  0.5817E+02
    -16.921  0.1533E+02  0.5839E+02
    -16.906  0.1558E+02  0.5862E+02
    -16.891  0.1581E+02  0.5886E+02
    -16.877  0.1601E+02  0.5909E+02
    -16.862  0.1618E+02  0.5933E+02
    -16.847  0.1631E+02  0.5957E+02
    -16.832  0.1640E+02  0.5981E+02
    -16.818  0.1644E+02  0.6005E+02
    -16.803  0.1644E+02  0.6029E+02
    -16.788  0.1639E+02  0.6053E+02
    -16.774  0.1631E+02  0.6077E+02
    -16.759  0.1619E+02  0.6101E+02
    -16.744  0.1605E+02  0.6125E+02
    -16.729  0.1589E+02  0.6148E+02
    -16.715  0.1572E+02  0.6171E+02
    -16.700  0.1555E+02  0.6194E+02
    -16.685  0.1540E+02  0.6217E+02
    -16.671  0.1527E+02  0.6239E+02
    -16.656  0.1516E+02  0.6262E+02
    -16.641  0.1510E+02  0.6284E+02
    -16.627  0.1508E+02  0.6306E+02
    -16.612  0.1510E+02  0.6328E+02
    -16.597  0.1517E+02  0.6351E+02
    -16.582  0.1529E+02  0.6373E+02
    -16.568  0.1545E+02  0.6396E+02
    -16.553  0.1564E+02  0.6419E+02
    -16.538  0.1587E+02  0.6442E+02
    -16.524  0.1611E+02  0.6466E+02
    -16.509  0.1637E+02  0.6490E+02
    -16.494  0.1664E+02  0.6514E+02
    -16.479  0.1690E+02  0.6539E+02
    -16.465  0.1715E+02  0.6564E+02
    -16.450  0.1738E+02  0.6590E+02
    -16.435  0.1758E+02  0.6616E+02
    -16.421  0.1775E+02  0.6642E+02
    -16.406  0.1789E+02  0.6668E+02
    -16.391  0.1799E+02  0.6695E+02
    -16.376  0.1805E+02  0.6721E+02
    -16.362  0.1807E+02  0.6748E+02
    -16.347  0.1806E+02  0.6774E+02
    -16.332  0.1801E+02  0.6801E+02
    -16.318  0.1792E+02  0.6827E+02
    -16.303  0.1781E+02  0.6853E+02
    -16.288  0.1767E+02  0.6879E+02
    -16.274  0.1752E+02  0.6905E+02
    -16.259  0.1735E+02  0.6931E+02
    -16.244  0.1717E+02  0.6956E+02
    -16.229  0.1699E+02  0.6981E+02
    -16.215  0.1682E+02  0.7006E+02
    -16.200  0.1664E+02  0.7030E+02
    -16.185  0.1648E+02  0.7054E+02
    -16.171  0.1634E+02  0.7079E+02
    -16.156  0.1621E+02  0.7102E+02
    -16.141  0.1610E+02  0.7126E+02
    -16.126  0.1601E+02  0.7150E+02
    -16.112  0.1594E+02  0.7173E+02
    -16.097  0.1589E+02  0.7196E+02
    -16.082  0.1586E+02  0.7220E+02
    -16.068  0.1585E+02  0.7243E+02
    -16.053  0.1586E+02  0.7266E+02
    -16.038  0.1589E+02  0.7290E+02
    -16.023  0.1592E+02  0.7313E+02
    -16.009  0.1598E+02  0.7337E+02
    -15.994  0.1604E+02  0.7360E+02
    -15.979  0.1611E+02  0.7384E+02
    -15.965  0.1620E+02  0.7408E+02
    -15.950  0.1629E+02  0.7432E+02
    -15.935  0.1640E+02  0.7456E+02
    -15.921  0.1653E+02  0.7480E+02
    -15.906  0.1666E+02  0.7505E+02
    -15.891  0.1682E+02  0.7529E+02
    -15.876  0.1699E+02  0.7554E+02
    -15.862  0.1719E+02  0.7580E+02
    -15.847  0.1740E+02  0.7605E+02
    -15.832  0.1763E+02  0.7631E+02
    -15.818  0.1787E+02  0.7657E+02
    -15.803  0.1813E+02  0.7684E+02
    -15.788  0.1840E+02  0.7711E+02
    -15.773  0.1868E+02  0.7739E+02
    -15.759  0.1896E+02  0.7767E+02
    -15.744  0.1923E+02  0.7795E+02
    -15.729  0.1949E+02  0.7823E+02
    -15.715  0.1973E+02  0.7853E+02
    -15.700  0.1995E+02  0.7882E+02
    -15.685  0.2015E+02  0.7911E+02
    -15.671  0.2031E+02  0.7941E+02
    -15.656  0.2043E+02  0.7971E+02
    -15.641  0.2052E+02  0.8002E+02
    -15.626  0.2056E+02  0.8032E+02
    -15.612  0.2056E+02  0.8062E+02
    -15.597  0.2052E+02  0.8092E+02
    -15.582  0.2044E+02  0.8122E+02
    -15.568  0.2032E+02  0.8152E+02
    -15.553  0.2016E+02  0.8182E+02
    -15.538  0.1998E+02  0.8211E+02
    -15.523  0.1976E+02  0.8240E+02
    -15.509  0.1952E+02  0.8269E+02
    -15.494  0.1926E+02  0.8297E+02
    -15.479  0.1898E+02  0.8325E+02
    -15.465  0.1868E+02  0.8353E+02
    -15.450  0.1837E+02  0.8380E+02
    -15.435  0.1805E+02  0.8406E+02
    -15.420  0.1771E+02  0.8432E+02
    -15.406  0.1736E+02  0.8458E+02
    -15.391  0.1700E+02  0.8483E+02
    -15.376  0.1662E+02  0.8507E+02
    -15.362  0.1623E+02  0.8531E+02
    -15.347  0.1583E+02  0.8554E+02
    -15.332  0.1541E+02  0.8577E+02
    -15.318  0.1499E+02  0.8599E+02
    -15.303  0.1455E+02  0.8621E+02
    -15.288  0.1411E+02  0.8641E+02
    -15.273  0.1366E+02  0.8661E+02
    -15.259  0.1322E+02  0.8681E+02
    -15.244  0.1277E+02  0.8700E+02
    -15.229  0.1233E+02  0.8718E+02
    -15.215  0.1191E+02  0.8735E+02
    -15.200  0.1150E+02  0.8752E+02
    -15.185  0.1111E+02  0.8769E+02
    -15.170  0.1074E+02  0.8784E+02
    -15.156  0.1040E+02  0.8800E+02
    -15.141  0.1009E+02  0.8815E+02
    -15.126  0.9809E+01  0.8829E+02
    -15.112  0.9559E+01  0.8843E+02
    -15.097  0.9341E+01  0.8857E+02
    -15.082  0.9157E+01  0.8870E+02
    -15.067  0.9005E+01  0.8883E+02
    -15.053  0.8886E+01  0.8897E+02
    -15.038  0.8797E+01  0.8909E+02
    -15.023  0.8739E+01  0.8922E+02
    -15.009  0.8709E+01  0.8935E+02
    -14.994  0.8706E+01  0.8948E+02
    -14.979  0.8728E+01  0.8961E+02
    -14.965  0.8771E+01  0.8974E+02
    -14.950  0.8835E+01  0.8987E+02
    -14.935  0.8914E+01  0.9000E+02
    -14.920  0.9007E+01  0.9013E+02
    -14.906  0.9109E+01  0.9026E+02
    -14.891  0.9217E+01  0.9040E+02
    -14.876  0.9327E+01  0.9054E+02
    -14.862  0.9435E+01  0.9068E+02
    -14.847  0.9537E+01  0.9082E+02
    -14.832  0.9630E+01  0.9096E+02
    -14.817  0.9712E+01  0.9110E+02
    -14.803  0.9781E+01  0.9124E+02
    -14.788  0.9837E+01  0.9139E+02
    -14.773  0.9878E+01  0.9153E+02
    -14.759  0.9907E+01  0.9168E+02
    -14.744  0.9925E+01  0.9183E+02
    -14.729  0.9937E+01  0.9197E+02
    -14.715  0.9946E+01  0.9212E+02
    -14.700  0.9956E+01  0.9226E+02
    -14.685  0.9974E+01  0.9241E+02
    -14.670  0.1000E+02  0.9256E+02
    -14.656  0.1005E+02  0.9271E+02
    -14.641  0.1012E+02  0.9286E+02
    -14.626  0.1021E+02  0.9301E+02
    -14.612  0.1033E+02  0.9316E+02
    -14.597  0.1048E+02  0.9331E+02
    -14.582  0.1065E+02  0.9347E+02
    -14.567  0.1085E+02  0.9363E+02
    -14.553  0.1107E+02  0.9379E+02
    -14.538  0.1132E+02  0.9396E+02
    -14.523  0.1157E+02  0.9413E+02
    -14.509  0.1184E+02  0.9430E+02
    -14.494  0.1211E+02  0.9448E+02
    -14.479  0.1238E+02  0.9466E+02
    -14.464  0.1264E+02  0.9485E+02
    -14.450  0.1288E+02  0.9504E+02
    -14.435  0.1311E+02  0.9523E+02
    -14.420  0.1332E+02  0.9543E+02
    -14.406  0.1350E+02  0.9562E+02
    -14.391  0.1365E+02  0.9582E+02
    -14.376  0.1378E+02  0.9603E+02
    -14.362  0.1388E+02  0.9623E+02
    -14.347  0.1395E+02  0.9644E+02
    -14.332  0.1400E+02  0.9664E+02
    -14.317  0.1402E+02  0.9685E+02
    -14.303  0.1403E+02  0.9705E+02
    -14.288  0.1401E+02  0.9726E+02
    -14.273  0.1399E+02  0.9747E+02
    -14.259  0.1395E+02  0.9767E+02
    -14.244  0.1391E+02  0.9788E+02
    -14.229  0.1388E+02  0.9808E+02
    -14.214  0.1384E+02  0.9828E+02
    -14.200  0.1383E+02  0.9849E+02
    -14.185  0.1382E+02  0.9869E+02
    -14.170  0.1385E+02  0.9889E+02
    -14.156  0.1389E+02  0.9910E+02
    -14.141  0.1398E+02  0.9930E+02
    -14.126  0.1409E+02  0.9951E+02
    -14.112  0.1425E+02  0.9972E+02
    -14.097  0.1445E+02  0.9993E+02
    -14.082  0.1469E+02  0.1001E+03
    -14.067  0.1498E+02  0.1004E+03
    -14.053  0.1530E+02  0.1006E+03
    -14.038  0.1567E+02  0.1008E+03
    -14.023  0.1606E+02  0.1011E+03
    -14.009  0.1648E+02  0.1013E+03
    -13.994  0.1693E+02  0.1016E+03
    -13.979  0.1738E+02  0.1018E+03
    -13.964  0.1784E+02  0.1021E+03
    -13.950  0.1828E+02  0.1023E+03
    -13.935  0.1871E+02  0.1026E+03
    -13.920  0.1912E+02  0.1029E+03
    -13.906  0.1948E+02  0.1032E+03
    -13.891  0.1981E+02  0.1035E+03
    -13.876  0.2008E+02  0.1038E+03
    -13.861  0.2031E+02  0.1041E+03
    -13.847  0.2047E+02  0.1044E+03
    -13.832  0.2058E+02  0.1047E+03
    -13.817  0.2063E+02  0.1050E+03
    -13.803  0.2062E+02  0.1053E+03
    -13.788  0.2057E+02  0.1056E+03
    -13.773  0.2046E+02  0.1059E+03
    -13.759  0.2032E+02  0.1062E+03
    -13.744  0.2015E+02  0.1065E+03
    -13.729  0.1996E+02  0.1068E+03
    -13.714  0.1975E+02  0.1071E+03
    -13.700  0.1954E+02  0.1073E+03
    -13.685  0.1932E+02  0.1076E+03
    -13.670  0.1912E+02  0.1079E+03
    -13.656  0.1892E+02  0.1082E+03
    -13.641  0.1874E+02  0.1085E+03
    -13.626  0.1858E+02  0.1087E+03
    -13.611  0.1845E+02  0.1090E+03
    -13.597  0.1834E+02  0.1093E+03
    -13.582  0.1826E+02  0.1096E+03
    -13.567  0.1819E+02  0.1098E+03
    -13.553  0.1815E+02  0.1101E+03
    -13.538  0.1813E+02  0.1104E+03
    -13.523  0.1813E+02  0.1106E+03
    -13.508  0.1814E+02  0.1109E+03
    -13.494  0.1815E+02  0.1112E+03
    -13.479  0.1817E+02  0.1114E+03
    -13.464  0.1819E+02  0.1117E+03
    -13.450  0.1821E+02  0.1120E+03
    -13.435  0.1821E+02  0.1122E+03
    -13.420  0.1821E+02  0.1125E+03
    -13.406  0.1818E+02  0.1128E+03
    -13.391  0.1814E+02  0.1130E+03
    -13.376  0.1807E+02  0.1133E+03
    -13.361  0.1798E+02  0.1136E+03
    -13.347  0.1787E+02  0.1138E+03
    -13.332  0.1773E+02  0.1141E+03
    -13.317  0.1758E+02  0.1143E+03
    -13.303  0.1740E+02  0.1146E+03
    -13.288  0.1721E+02  0.1148E+03
    -13.273  0.1700E+02  0.1151E+03
    -13.258  0.1680E+02  0.1153E+03
    -13.244  0.1659E+02  0.1156E+03
    -13.229  0.1640E+02  0.1158E+03
    -13.214  0.1623E+02  0.1161E+03
    -13.200  0.1608E+02  0.1163E+03
    -13.185  0.1596E+02  0.1165E+03
    -13.170  0.1588E+02  0.1168E+03
    -13.156  0.1584E+02  0.1170E+03
    -13.141  0.1584E+02  0.1172E+03
    -13.126  0.1588E+02  0.1175E+03
    -13.111  0.1596E+02  0.1177E+03
    -13.097  0.1608E+02  0.1179E+03
    -13.082  0.1623E+02  0.1182E+03
    -13.067  0.1641E+02  0.1184E+03
    -13.053  0.1661E+02  0.1187E+03
    -13.038  0.1681E+02  0.1189E+03
    -13.023  0.1702E+02  0.1192E+03
    -13.008  0.1721E+02  0.1194E+03
    -12.994  0.1739E+02  0.1197E+03
    -12.979  0.1755E+02  0.1199E+03
    -12.964  0.1768E+02  0.1202E+03
    -12.950  0.1777E+02  0.1205E+03
    -12.935  0.1783E+02  0.1207E+03
    -12.920  0.1785E+02  0.1210E+03
    -12.905  0.1784E+02  0.1212E+03
    -12.891  0.1779E+02  0.1215E+03
    -12.876  0.1772E+02  0.1218E+03
    -12.861  0.1762E+02  0.1220E+03
    -12.847  0.1749E+02  0.1223E+03
    -12.832  0.1736E+02  0.1225E+03
    -12.817  0.1721E+02  0.1228E+03
    -12.803  0.1705E+02  0.1230E+03
    -12.788  0.1690E+02  0.1233E+03
    -12.773  0.1674E+02  0.1235E+03
    -12.758  0.1659E+02  0.1238E+03
    -12.744  0.1645E+02  0.1240E+03
    -12.729  0.1631E+02  0.1243E+03
    -12.714  0.1618E+02  0.1245E+03
    -12.700  0.1605E+02  0.1247E+03
    -12.685  0.1593E+02  0.1250E+03
    -12.670  0.1581E+02  0.1252E+03
    -12.655  0.1570E+02  0.1254E+03
    -12.641  0.1559E+02  0.1257E+03
    -12.626  0.1547E+02  0.1259E+03
    -12.611  0.1536E+02  0.1261E+03
    -12.597  0.1524E+02  0.1263E+03
    -12.582  0.1511E+02  0.1266E+03
    -12.567  0.1498E+02  0.1268E+03
    -12.552  0.1484E+02  0.1270E+03
    -12.538  0.1469E+02  0.1272E+03
    -12.523  0.1453E+02  0.1274E+03
    -12.508  0.1435E+02  0.1276E+03
    -12.494  0.1416E+02  0.1278E+03
    -12.479  0.1395E+02  0.1281E+03
    -12.464  0.1372E+02  0.1283E+03
    -12.450  0.1349E+02  0.1285E+03
    -12.435  0.1323E+02  0.1286E+03
    -12.420  0.1297E+02  0.1288E+03
    -12.405  0.1270E+02  0.1290E+03
    -12.391  0.1242E+02  0.1292E+03
    -12.376  0.1215E+02  0.1294E+03
    -12.361  0.1187E+02  0.1296E+03
    -12.347  0.1161E+02  0.1297E+03
    -12.332  0.1137E+02  0.1299E+03
    -12.317  0.1115E+02  0.1301E+03
    -12.302  0.1096E+02  0.1302E+03
    -12.288  0.1080E+02  0.1304E+03
    -12.273  0.1068E+02  0.1305E+03
    -12.258  0.1060E+02  0.1307E+03
    -12.244  0.1057E+02  0.1309E+03
    -12.229  0.1058E+02  0.1310E+03
    -12.214  0.1065E+02  0.1312E+03
    -12.200  0.1076E+02  0.1313E+03
    -12.185  0.1092E+02  0.1315E+03
    -12.170  0.1112E+02  0.1316E+03
    -12.155  0.1136E+02  0.1318E+03
    -12.141  0.1163E+02  0.1320E+03
    -12.126  0.1194E+02  0.1322E+03
    -12.111  0.1228E+02  0.1323E+03
    -12.097  0.1263E+02  0.1325E+03
    -12.082  0.1301E+02  0.1327E+03
    -12.067  0.1340E+02  0.1329E+03
    -12.052  0.1379E+02  0.1331E+03
    -12.038  0.1419E+02  0.1333E+03
    -12.023  0.1459E+02  0.1335E+03
    -12.008  0.1498E+02  0.1338E+03
    -11.994  0.1537E+02  0.1340E+03
    -11.979  0.1574E+02  0.1342E+03
    -11.964  0.1610E+02  0.1345E+03
    -11.949  0.1643E+02  0.1347E+03
    -11.935  0.1675E+02  0.1349E+03
    -11.920  0.1704E+02  0.1352E+03
    -11.905  0.1730E+02  0.1354E+03
    -11.891  0.1752E+02  0.1357E+03
    -11.876  0.1772E+02  0.1360E+03
    -11.861  0.1787E+02  0.1362E+03
    -11.847  0.1799E+02  0.1365E+03
    -11.832  0.1806E+02  0.1368E+03
    -11.817  0.1810E+02  0.1370E+03
    -11.802  0.1811E+02  0.1373E+03
    -11.788  0.1807E+02  0.1376E+03
    -11.773  0.1801E+02  0.1378E+03
    -11.758  0.1792E+02  0.1381E+03
    -11.744  0.1781E+02  0.1383E+03
    -11.729  0.1769E+02  0.1386E+03
    -11.714  0.1755E+02  0.1389E+03
    -11.699  0.1740E+02  0.1391E+03
    -11.685  0.1726E+02  0.1394E+03
    -11.670  0.1712E+02  0.1396E+03
    -11.655  0.1699E+02  0.1399E+03
    -11.641  0.1687E+02  0.1401E+03
    -11.626  0.1676E+02  0.1404E+03
    -11.611  0.1667E+02  0.1406E+03
    -11.597  0.1660E+02  0.1409E+03
    -11.582  0.1654E+02  0.1411E+03
    -11.567  0.1649E+02  0.1413E+03
    -11.552  0.1646E+02  0.1416E+03
    -11.538  0.1643E+02  0.1418E+03
    -11.523  0.1641E+02  0.1421E+03
    -11.508  0.1640E+02  0.1423E+03
    -11.494  0.1640E+02  0.1426E+03
    -11.479  0.1639E+02  0.1428E+03
    -11.464  0.1637E+02  0.1430E+03
    -11.449  0.1636E+02  0.1433E+03
    -11.435  0.1633E+02  0.1435E+03
    -11.420  0.1629E+02  0.1438E+03
    -11.405  0.1624E+02  0.1440E+03
    -11.391  0.1617E+02  0.1442E+03
    -11.376  0.1608E+02  0.1445E+03
    -11.361  0.1597E+02  0.1447E+03
    -11.346  0.1584E+02  0.1449E+03
    -11.332  0.1570E+02  0.1452E+03
    -11.317  0.1553E+02  0.1454E+03
    -11.302  0.1536E+02  0.1456E+03
    -11.288  0.1517E+02  0.1458E+03
    -11.273  0.1497E+02  0.1461E+03
    -11.258  0.1478E+02  0.1463E+03
    -11.244  0.1460E+02  0.1465E+03
    -11.229  0.1444E+02  0.1467E+03
    -11.214  0.1431E+02  0.1469E+03
    -11.199  0.1422E+02  0.1471E+03
    -11.185  0.1418E+02  0.1473E+03
    -11.170  0.1419E+02  0.1475E+03
    -11.155  0.1427E+02  0.1478E+03
    -11.141  0.1442E+02  0.1480E+03
    -11.126  0.1464E+02  0.1482E+03
    -11.111  0.1495E+02  0.1484E+03
    -11.096  0.1533E+02  0.1486E+03
    -11.082  0.1578E+02  0.1489E+03
    -11.067  0.1630E+02  0.1491E+03
    -11.052  0.1688E+02  0.1494E+03
    -11.038  0.1751E+02  0.1496E+03
    -11.023  0.1817E+02  0.1499E+03
    -11.008  0.1884E+02  0.1502E+03
    -10.993  0.1951E+02  0.1504E+03
    -10.979  0.2016E+02  0.1507E+03
    -10.964  0.2078E+02  0.1510E+03
    -10.949  0.2134E+02  0.1514E+03
    -10.935  0.2182E+02  0.1517E+03
    -10.920  0.2221E+02  0.1520E+03
    -10.905  0.2251E+02  0.1523E+03
    -10.891  0.2269E+02  0.1527E+03
    -10.876  0.2276E+02  0.1530E+03
    -10.861  0.2271E+02  0.1533E+03
    -10.846  0.2254E+02  0.1537E+03
    -10.832  0.2225E+02  0.1540E+03
    -10.817  0.2187E+02  0.1543E+03
    -10.802  0.2139E+02  0.1546E+03
    -10.788  0.2084E+02  0.1549E+03
    -10.773  0.2022E+02  0.1552E+03
    -10.758  0.1957E+02  0.1555E+03
    -10.743  0.1889E+02  0.1558E+03
    -10.729  0.1821E+02  0.1561E+03
    -10.714  0.1755E+02  0.1563E+03
    -10.699  0.1692E+02  0.1566E+03