 140 140   0   0
  0.5034337E+02  0.2088029E-08  0.1687734E-08  0.2000000E-08  0.5000000E-15
  1.000000000000000E-004
  CAR 
 unknown system                          
      3.16618145    -24.27285496 2000     -3.69127719      1.00000000
    -24.273  0.0000E+00  0.0000E+00
    -24.259  0.0000E+00  0.0000E+00
    -24.245  0.0000E+00  0.0000E+00
    -24.232  0.0000E+00  0.0000E+00
    -24.218  0.0000E+00  0.0000E+00
    -24.204  0.0000E+00  0.0000E+00
    -24.190  0.0000E+00  0.0000E+00
    -24.177  0.0000E+00  0.0000E+00
    -24.163  0.0000E+00  0.0000E+00
    -24.149  0.0000E+00  0.0000E+00
    -24.136  0.0000E+00  0.0000E+00
    -24.122  0.0000E+00  0.0000E+00
    -24.108  0.0000E+00  0.0000E+00
    -24.094  0.0000E+00  0.0000E+00
    -24.081  0.0000E+00  0.0000E+00
    -24.067  0.0000E+00  0.0000E+00
    -24.053  0.0000E+00  0.0000E+00
    -24.040  0.0000E+00  0.0000E+00
    -24.026  0.0000E+00  0.0000E+00
    -24.012  0.0000E+00  0.0000E+00
    -23.998  0.0000E+00  0.0000E+00
    -23.985  0.0000E+00  0.0000E+00
    -23.971  0.0000E+00  0.0000E+00
    -23.957  0.0000E+00  0.0000E+00
    -23.943  0.0000E+00  0.0000E+00
    -23.930  0.0000E+00  0.0000E+00
    -23.916  0.0000E+00  0.0000E+00
    -23.902  0.0000E+00  0.0000E+00
    -23.889  0.0000E+00  0.0000E+00
    -23.875  0.0000E+00  0.0000E+00
    -23.861  0.0000E+00  0.0000E+00
    -23.847  0.0000E+00  0.0000E+00
    -23.834  0.0000E+00  0.0000E+00
    -23.820  0.0000E+00  0.0000E+00
    -23.806  0.0000E+00  0.0000E+00
    -23.792  0.0000E+00  0.0000E+00
    -23.779  0.0000E+00  0.0000E+00
    -23.765  0.0000E+00  0.0000E+00
    -23.751  0.0000E+00  0.0000E+00
    -23.738  0.0000E+00  0.0000E+00
    -23.724  0.0000E+00  0.0000E+00
    -23.710  0.0000E+00  0.0000E+00
    -23.696  0.0000E+00  0.0000E+00
    -23.683  0.0000E+00  0.0000E+00
    -23.669  0.0000E+00  0.0000E+00
    -23.655  0.0000E+00  0.0000E+00
    -23.641  0.0000E+00  0.0000E+00
    -23.628  0.0000E+00  0.0000E+00
    -23.614  0.0000E+00  0.0000E+00
    -23.600  0.0000E+00  0.0000E+00
    -23.587  0.0000E+00  0.0000E+00
    -23.573  0.0000E+00  0.0000E+00
    -23.559  0.0000E+00  0.0000E+00
    -23.545  0.0000E+00  0.0000E+00
    -23.532  0.0000E+00  0.0000E+00
    -23.518  0.0000E+00  0.0000E+00
    -23.504  0.0000E+00  0.0000E+00
    -23.490  0.0000E+00  0.0000E+00
    -23.477  0.0000E+00  0.0000E+00
    -23.463  0.0000E+00  0.0000E+00
    -23.449  0.2696E-14  0.3701E-16
    -23.436  0.2696E-14  0.7401E-16
    -23.422  0.1078E-13  0.2220E-15
    -23.408  0.1708E-13  0.4564E-15
    -23.394  0.4044E-13  0.1012E-14
    -23.381  0.8897E-13  0.2233E-14
    -23.367  0.1914E-12  0.4860E-14
    -23.353  0.4053E-12  0.1042E-13
    -23.339  0.8520E-12  0.2212E-13
    -23.326  0.1794E-11  0.4674E-13
    -23.312  0.3710E-11  0.9766E-13
    -23.298  0.7615E-11  0.2022E-12
    -23.285  0.1549E-10  0.4148E-12
    -23.271  0.3120E-10  0.8431E-12
    -23.257  0.6229E-10  0.1698E-11
    -23.243  0.1232E-09  0.3389E-11
    -23.230  0.2413E-09  0.6702E-11
    -23.216  0.4684E-09  0.1313E-10
    -23.202  0.9009E-09  0.2550E-10
    -23.188  0.1716E-08  0.4906E-10
    -23.175  0.3240E-08  0.9352E-10
    -23.161  0.6058E-08  0.1767E-09
    -23.147  0.1122E-07  0.3307E-09
    -23.134  0.2060E-07  0.6135E-09
    -23.120  0.3746E-07  0.1128E-08
    -23.106  0.6749E-07  0.2054E-08
    -23.092  0.1205E-06  0.3708E-08
    -23.079  0.2130E-06  0.6631E-08
    -23.065  0.3732E-06  0.1175E-07
    -23.051  0.6478E-06  0.2065E-07
    -23.037  0.1114E-05  0.3594E-07
    -23.024  0.1898E-05  0.6199E-07
    -23.010  0.3204E-05  0.1060E-06
    -22.996  0.5359E-05  0.1795E-06
    -22.983  0.8879E-05  0.3014E-06
    -22.969  0.1458E-04  0.5015E-06
    -22.955  0.2371E-04  0.8269E-06
    -22.941  0.3821E-04  0.1351E-05
    -22.928  0.6101E-04  0.2189E-05
    -22.914  0.9651E-04  0.3514E-05
    -22.900  0.1513E-03  0.5590E-05
    -22.886  0.2349E-03  0.8815E-05
    -22.873  0.3615E-03  0.1378E-04
    -22.859  0.5511E-03  0.2134E-04
    -22.845  0.8325E-03  0.3277E-04
    -22.832  0.1246E-02  0.4987E-04
    -22.818  0.1848E-02  0.7523E-04
    -22.804  0.2715E-02  0.1125E-03
    -22.790  0.3954E-02  0.1668E-03
    -22.777  0.5704E-02  0.2451E-03
    -22.763  0.8155E-02  0.3570E-03
    -22.749  0.1155E-01  0.5156E-03
    -22.736  0.1622E-01  0.7382E-03
    -22.722  0.2256E-01  0.1048E-02
    -22.708  0.3110E-01  0.1475E-02
    -22.694  0.4248E-01  0.2058E-02
    -22.681  0.5751E-01  0.2847E-02
    -22.667  0.7716E-01  0.3906E-02
    -22.653  0.1026E+00  0.5315E-02
    -22.639  0.1352E+00  0.7171E-02
    -22.626  0.1766E+00  0.9595E-02
    -22.612  0.2286E+00  0.1273E-01
    -22.598  0.2933E+00  0.1676E-01
    -22.585  0.3730E+00  0.2188E-01
    -22.571  0.4703E+00  0.2833E-01
    -22.557  0.5878E+00  0.3640E-01
    -22.543  0.7282E+00  0.4640E-01
    -22.530  0.8945E+00  0.5868E-01
    -22.516  0.1089E+01  0.7363E-01
    -22.502  0.1315E+01  0.9169E-01
    -22.488  0.1575E+01  0.1133E+00
    -22.475  0.1870E+01  0.1390E+00
    -22.461  0.2203E+01  0.1692E+00
    -22.447  0.2573E+01  0.2045E+00
    -22.434  0.2981E+01  0.2454E+00
    -22.420  0.3426E+01  0.2925E+00
    -22.406  0.3907E+01  0.3461E+00
    -22.392  0.4420E+01  0.4068E+00
    -22.379  0.4964E+01  0.4749E+00
    -22.365  0.5532E+01  0.5508E+00
    -22.351  0.6121E+01  0.6349E+00
    -22.337  0.6723E+01  0.7271E+00
    -22.324  0.7334E+01  0.8278E+00
    -22.310  0.7945E+01  0.9369E+00
    -22.296  0.8551E+01  0.1054E+01
    -22.283  0.9145E+01  0.1180E+01
    -22.269  0.9719E+01  0.1313E+01
    -22.255  0.1027E+02  0.1454E+01
    -22.241  0.1079E+02  0.1602E+01
    -22.228  0.1128E+02  0.1757E+01
    -22.214  0.1173E+02  0.1918E+01
    -22.200  0.1214E+02  0.2085E+01
    -22.186  0.1250E+02  0.2256E+01
    -22.173  0.1283E+02  0.2432E+01
    -22.159  0.1312E+02  0.2612E+01
    -22.145  0.1337E+02  0.2796E+01
    -22.132  0.1359E+02  0.2983E+01
    -22.118  0.1377E+02  0.3171E+01
    -22.104  0.1392E+02  0.3363E+01
    -22.090  0.1405E+02  0.3555E+01
    -22.077  0.1416E+02  0.3750E+01
    -22.063  0.1426E+02  0.3946E+01
    -22.049  0.1434E+02  0.4142E+01
    -22.035  0.1442E+02  0.4340E+01
    -22.022  0.1450E+02  0.4539E+01
    -22.008  0.1457E+02  0.4739E+01
    -21.994  0.1465E+02  0.4941E+01
    -21.981  0.1474E+02  0.5143E+01
    -21.967  0.1483E+02  0.5346E+01
    -21.953  0.1494E+02  0.5551E+01
    -21.939  0.1506E+02  0.5758E+01
    -21.926  0.1518E+02  0.5967E+01
    -21.912  0.1532E+02  0.6177E+01
    -21.898  0.1547E+02  0.6389E+01
    -21.884  0.1562E+02  0.6604E+01
    -21.871  0.1579E+02  0.6820E+01
    -21.857  0.1595E+02  0.7039E+01
    -21.843  0.1613E+02  0.7261E+01
    -21.830  0.1630E+02  0.7484E+01
    -21.816  0.1647E+02  0.7710E+01
    -21.802  0.1664E+02  0.7939E+01
    -21.788  0.1681E+02  0.8170E+01
    -21.775  0.1697E+02  0.8403E+01
    -21.761  0.1713E+02  0.8638E+01
    -21.747  0.1727E+02  0.8875E+01
    -21.733  0.1742E+02  0.9114E+01
    -21.720  0.1755E+02  0.9355E+01
    -21.706  0.1768E+02  0.9597E+01
    -21.692  0.1780E+02  0.9842E+01
    -21.679  0.1791E+02  0.1009E+02
    -21.665  0.1801E+02  0.1033E+02
    -21.651  0.1811E+02  0.1058E+02
    -21.637  0.1820E+02  0.1083E+02
    -21.624  0.1828E+02  0.1108E+02
    -21.610  0.1835E+02  0.1134E+02
    -21.596  0.1842E+02  0.1159E+02
    -21.582  0.1849E+02  0.1184E+02
    -21.569  0.1855E+02  0.1210E+02
    -21.555  0.1861E+02  0.1235E+02
    -21.541  0.1867E+02  0.1261E+02
    -21.528  0.1874E+02  0.1287E+02
    -21.514  0.1882E+02  0.1312E+02
    -21.500  0.1890E+02  0.1338E+02
    -21.486  0.1901E+02  0.1364E+02
    -21.473  0.1913E+02  0.1391E+02
    -21.459  0.1928E+02  0.1417E+02
    -21.445  0.1945E+02  0.1444E+02
    -21.431  0.1966E+02  0.1471E+02
    -21.418  0.1990E+02  0.1498E+02
    -21.404  0.2018E+02  0.1526E+02
    -21.390  0.2049E+02  0.1554E+02
    -21.377  0.2083E+02  0.1583E+02
    -21.363  0.2121E+02  0.1612E+02
    -21.349  0.2162E+02  0.1641E+02
    -21.335  0.2205E+02  0.1672E+02
    -21.322  0.2250E+02  0.1703E+02
    -21.308  0.2296E+02  0.1734E+02
    -21.294  0.2342E+02  0.1766E+02
    -21.281  0.2388E+02  0.1799E+02
    -21.267  0.2433E+02  0.1832E+02
    -21.253  0.2476E+02  0.1866E+02
    -21.239  0.2515E+02  0.1901E+02
    -21.226  0.2551E+02  0.1936E+02
    -21.212  0.2582E+02  0.1971E+02
    -21.198  0.2608E+02  0.2007E+02
    -21.184  0.2628E+02  0.2043E+02
    -21.171  0.2642E+02  0.2080E+02
    -21.157  0.2650E+02  0.2116E+02
    -21.143  0.2650E+02  0.2152E+02
    -21.130  0.2644E+02  0.2189E+02
    -21.116  0.2630E+02  0.2225E+02
    -21.102  0.2610E+02  0.2261E+02
    -21.088  0.2584E+02  0.2296E+02
    -21.075  0.2552E+02  0.2331E+02
    -21.061  0.2513E+02  0.2366E+02
    -21.047  0.2470E+02  0.2399E+02
    -21.033  0.2423E+02  0.2433E+02
    -21.020  0.2372E+02  0.2465E+02
    -21.006  0.2318E+02  0.2497E+02
    -20.992  0.2262E+02  0.2528E+02
    -20.979  0.2205E+02  0.2558E+02
    -20.965  0.2148E+02  0.2588E+02
    -20.951  0.2091E+02  0.2617E+02
    -20.937  0.2035E+02  0.2644E+02
    -20.924  0.1982E+02  0.2672E+02
    -20.910  0.1931E+02  0.2698E+02
    -20.896  0.1884E+02  0.2724E+02
    -20.882  0.1842E+02  0.2749E+02
    -20.869  0.1804E+02  0.2774E+02
    -20.855  0.1772E+02  0.2798E+02
    -20.841  0.1745E+02  0.2822E+02
    -20.828  0.1725E+02  0.2846E+02
    -20.814  0.1710E+02  0.2870E+02
    -20.800  0.1702E+02  0.2893E+02
    -20.786  0.1699E+02  0.2916E+02
    -20.773  0.1703E+02  0.2940E+02
    -20.759  0.1712E+02  0.2963E+02
    -20.745  0.1726E+02  0.2987E+02
    -20.731  0.1745E+02  0.3011E+02
    -20.718  0.1769E+02  0.3035E+02
    -20.704  0.1796E+02  0.3060E+02
    -20.690  0.1825E+02  0.3085E+02
    -20.677  0.1857E+02  0.3110E+02
    -20.663  0.1891E+02  0.3136E+02
    -20.649  0.1925E+02  0.3163E+02
    -20.635  0.1959E+02  0.3189E+02
    -20.622  0.1993E+02  0.3217E+02
    -20.608  0.2025E+02  0.3245E+02
    -20.594  0.2055E+02  0.3273E+02
    -20.580  0.2082E+02  0.3301E+02
    -20.567  0.2106E+02  0.3330E+02
    -20.553  0.2128E+02  0.3360E+02
    -20.539  0.2145E+02  0.3389E+02
    -20.526  0.2159E+02  0.3419E+02
    -20.512  0.2170E+02  0.3448E+02
    -20.498  0.2177E+02  0.3478E+02
    -20.484  0.2180E+02  0.3508E+02
    -20.471  0.2181E+02  0.3538E+02
    -20.457  0.2180E+02  0.3568E+02
    -20.443  0.2176E+02  0.3598E+02
    -20.429  0.2171E+02  0.3628E+02
    -20.416  0.2165E+02  0.3657E+02
    -20.402  0.2158E+02  0.3687E+02
    -20.388  0.2151E+02  0.3717E+02
    -20.375  0.2143E+02  0.3746E+02
    -20.361  0.2137E+02  0.3775E+02
    -20.347  0.2131E+02  0.3805E+02
    -20.333  0.2125E+02  0.3834E+02
    -20.320  0.2121E+02  0.3863E+02
    -20.306  0.2117E+02  0.3892E+02
    -20.292  0.2114E+02  0.3921E+02
    -20.278  0.2111E+02  0.3950E+02
    -20.265  0.2109E+02  0.3979E+02
    -20.251  0.2106E+02  0.4008E+02
    -20.237  0.2104E+02  0.4037E+02
    -20.224  0.2102E+02  0.4066E+02
    -20.210  0.2099E+02  0.4094E+02
    -20.196  0.2096E+02  0.4123E+02
    -20.182  0.2093E+02  0.4152E+02
    -20.169  0.2090E+02  0.4180E+02
    -20.155  0.2086E+02  0.4209E+02
    -20.141  0.2083E+02  0.4238E+02
    -20.127  0.2080E+02  0.4266E+02
    -20.114  0.2078E+02  0.4295E+02
    -20.100  0.2078E+02  0.4323E+02
    -20.086  0.2079E+02  0.4352E+02
    -20.073  0.2082E+02  0.4380E+02
    -20.059  0.2088E+02  0.4409E+02
    -20.045  0.2097E+02  0.4438E+02
    -20.031  0.2110E+02  0.4467E+02
    -20.018  0.2125E+02  0.4496E+02
    -20.004  0.2145E+02  0.4525E+02
    -19.990  0.2168E+02  0.4555E+02
    -19.976  0.2195E+02  0.4585E+02
    -19.963  0.2225E+02  0.4616E+02
    -19.949  0.2258E+02  0.4647E+02
    -19.935  0.2293E+02  0.4678E+02
    -19.922  0.2330E+02  0.4710E+02
    -19.908  0.2369E+02  0.4743E+02
    -19.894  0.2408E+02  0.4776E+02
    -19.880  0.2446E+02  0.4809E+02
    -19.867  0.2483E+02  0.4844E+02
    -19.853  0.2517E+02  0.4878E+02
    -19.839  0.2549E+02  0.4913E+02
    -19.826  0.2577E+02  0.4948E+02
    -19.812  0.2601E+02  0.4984E+02
    -19.798  0.2619E+02  0.5020E+02
    -19.784  0.2633E+02  0.5056E+02
    -19.771  0.2640E+02  0.5093E+02
    -19.757  0.2642E+02  0.5129E+02
    -19.743  0.2638E+02  0.5165E+02
    -19.729  0.2629E+02  0.5201E+02
    -19.716  0.2614E+02  0.5237E+02
    -19.702  0.2593E+02  0.5273E+02
    -19.688  0.2569E+02  0.5308E+02
    -19.675  0.2540E+02  0.5343E+02
    -19.661  0.2508E+02  0.5377E+02
    -19.647  0.2472E+02  0.5411E+02
    -19.633  0.2435E+02  0.5444E+02
    -19.620  0.2396E+02  0.5477E+02
    -19.606  0.2357E+02  0.5510E+02
    -19.592  0.2317E+02  0.5542E+02
    -19.578  0.2278E+02  0.5573E+02
    -19.565  0.2241E+02  0.5604E+02
    -19.551  0.2205E+02  0.5634E+02
    -19.537  0.2171E+02  0.5664E+02
    -19.524  0.2140E+02  0.5693E+02
    -19.510  0.2112E+02  0.5722E+02
    -19.496  0.2088E+02  0.5751E+02
    -19.482  0.2067E+02  0.5779E+02
    -19.469  0.2050E+02  0.5807E+02
    -19.455  0.2037E+02  0.5835E+02
    -19.441  0.2027E+02  0.5863E+02
    -19.427  0.2022E+02  0.5891E+02
    -19.414  0.2019E+02  0.5918E+02
    -19.400  0.2020E+02  0.5946E+02
    -19.386  0.2023E+02  0.5974E+02
    -19.373  0.2029E+02  0.6002E+02
    -19.359  0.2037E+02  0.6030E+02
    -19.345  0.2046E+02  0.6058E+02
    -19.331  0.2057E+02  0.6086E+02
    -19.318  0.2068E+02  0.6114E+02
    -19.304  0.2080E+02  0.6143E+02
    -19.290  0.2091E+02  0.6172E+02
    -19.276  0.2102E+02  0.6201E+02
    -19.263  0.2113E+02  0.6230E+02
    -19.249  0.2123E+02  0.6259E+02
    -19.235  0.2131E+02  0.6288E+02
    -19.222  0.2139E+02  0.6317E+02
    -19.208  0.2145E+02  0.6347E+02
    -19.194  0.2150E+02  0.6376E+02
    -19.180  0.2153E+02  0.6406E+02
    -19.167  0.2156E+02  0.6435E+02
    -19.153  0.2157E+02  0.6465E+02
    -19.139  0.2158E+02  0.6495E+02
    -19.125  0.2157E+02  0.6524E+02
    -19.112  0.2157E+02  0.6554E+02
    -19.098  0.2156E+02  0.6583E+02
    -19.084  0.2156E+02  0.6613E+02
    -19.071  0.2155E+02  0.6643E+02
    -19.057  0.2155E+02  0.6672E+02
    -19.043  0.2156E+02  0.6702E+02
    -19.029  0.2158E+02  0.6731E+02
    -19.016  0.2161E+02  0.6761E+02
    -19.002  0.2165E+02  0.6791E+02
    -18.988  0.2170E+02  0.6821E+02
    -18.974  0.2177E+02  0.6850E+02
    -18.961  0.2185E+02  0.6880E+02
    -18.947  0.2195E+02  0.6911E+02
    -18.933  0.2205E+02  0.6941E+02
    -18.920  0.2218E+02  0.6971E+02
    -18.906  0.2231E+02  0.7002E+02
    -18.892  0.2245E+02  0.7033E+02
    -18.878  0.2260E+02  0.7064E+02
    -18.865  0.2276E+02  0.7095E+02
    -18.851  0.2292E+02  0.7126E+02
    -18.837  0.2309E+02  0.7158E+02
    -18.823  0.2326E+02  0.7190E+02
    -18.810  0.2342E+02  0.7222E+02
    -18.796  0.2358E+02  0.7255E+02
    -18.782  0.2374E+02  0.7287E+02
    -18.769  0.2389E+02  0.7320E+02
    -18.755  0.2403E+02  0.7353E+02
    -18.741  0.2416E+02  0.7386E+02
    -18.727  0.2428E+02  0.7419E+02
    -18.714  0.2438E+02  0.7453E+02
    -18.700  0.2446E+02  0.7486E+02
    -18.686  0.2451E+02  0.7520E+02
    -18.672  0.2455E+02  0.7554E+02
    -18.659  0.2456E+02  0.7587E+02
    -18.645  0.2454E+02  0.7621E+02
    -18.631  0.2449E+02  0.7655E+02
    -18.618  0.2441E+02  0.7688E+02
    -18.604  0.2430E+02  0.7722E+02
    -18.590  0.2415E+02  0.7755E+02
    -18.576  0.2398E+02  0.7788E+02
    -18.563  0.2378E+02  0.7820E+02
    -18.549  0.2355E+02  0.7853E+02
    -18.535  0.2330E+02  0.7885E+02
    -18.522  0.2303E+02  0.7916E+02
    -18.508  0.2275E+02  0.7948E+02
    -18.494  0.2246E+02  0.7978E+02
    -18.480  0.2217E+02  0.8009E+02
    -18.467  0.2189E+02  0.8039E+02
    -18.453  0.2162E+02  0.8069E+02
    -18.439  0.2137E+02  0.8098E+02
    -18.425  0.2115E+02  0.8127E+02
    -18.412  0.2096E+02  0.8156E+02
    -18.398  0.2080E+02  0.8184E+02
    -18.384  0.2069E+02  0.8213E+02
    -18.371  0.2063E+02  0.8241E+02
    -18.357  0.2061E+02  0.8269E+02
    -18.343  0.2064E+02  0.8298E+02
    -18.329  0.2072E+02  0.8326E+02
    -18.316  0.2084E+02  0.8355E+02
    -18.302  0.2100E+02  0.8383E+02
    -18.288  0.2121E+02  0.8413E+02
    -18.274  0.2144E+02  0.8442E+02
    -18.261  0.2170E+02  0.8472E+02
    -18.247  0.2198E+02  0.8502E+02
    -18.233  0.2227E+02  0.8532E+02
    -18.220  0.2256E+02  0.8563E+02
    -18.206  0.2285E+02  0.8595E+02
    -18.192  0.2313E+02  0.8627E+02
    -18.178  0.2340E+02  0.8659E+02
    -18.165  0.2364E+02  0.8691E+02
    -18.151  0.2385E+02  0.8724E+02
    -18.137  0.2403E+02  0.8757E+02
    -18.123  0.2417E+02  0.8790E+02
    -18.110  0.2427E+02  0.8823E+02
    -18.096  0.2433E+02  0.8857E+02
    -18.082  0.2435E+02  0.8890E+02
    -18.069  0.2434E+02  0.8924E+02
    -18.055  0.2428E+02  0.8957E+02
    -18.041  0.2419E+02  0.8990E+02
    -18.027  0.2406E+02  0.9023E+02
    -18.014  0.2391E+02  0.9056E+02
    -18.000  0.2373E+02  0.9089E+02
    -17.986  0.2354E+02  0.9121E+02
    -17.972  0.2334E+02  0.9153E+02
    -17.959  0.2313E+02  0.9185E+02
    -17.945  0.2291E+02  0.9216E+02
    -17.931  0.2271E+02  0.9247E+02
    -17.918  0.2251E+02  0.9278E+02
    -17.904  0.2232E+02  0.9309E+02
    -17.890  0.2216E+02  0.9339E+02
    -17.876  0.2201E+02  0.9369E+02
    -17.863  0.2189E+02  0.9399E+02
    -17.849  0.2180E+02  0.9429E+02
    -17.835  0.2173E+02  0.9459E+02
    -17.821  0.2170E+02  0.9489E+02
    -17.808  0.2169E+02  0.9519E+02
    -17.794  0.2170E+02  0.9549E+02
    -17.780  0.2174E+02  0.9578E+02
    -17.767  0.2181E+02  0.9608E+02
    -17.753  0.2189E+02  0.9638E+02
    -17.739  0.2198E+02  0.9669E+02
    -17.725  0.2209E+02  0.9699E+02
    -17.712  0.2221E+02  0.9729E+02
    -17.698  0.2233E+02  0.9760E+02
    -17.684  0.2245E+02  0.9791E+02
    -17.670  0.2256E+02  0.9822E+02
    -17.657  0.2267E+02  0.9853E+02
    -17.643  0.2277E+02  0.9884E+02
    -17.629  0.2286E+02  0.9916E+02
    -17.616  0.2293E+02  0.9947E+02
    -17.602  0.2299E+02  0.9979E+02
    -17.588  0.2304E+02  0.1001E+03
    -17.574  0.2308E+02  0.1004E+03
    -17.561  0.2310E+02  0.1007E+03
    -17.547  0.2312E+02  0.1011E+03
    -17.533  0.2313E+02  0.1014E+03
    -17.519  0.2313E+02  0.1017E+03
    -17.506  0.2312E+02  0.1020E+03
    -17.492  0.2312E+02  0.1023E+03
    -17.478  0.2311E+02  0.1026E+03
    -17.465  0.2311E+02  0.1030E+03
    -17.451  0.2310E+02  0.1033E+03
    -17.437  0.2310E+02  0.1036E+03
    -17.423  0.2310E+02  0.1039E+03
    -17.410  0.2310E+02  0.1042E+03
    -17.396  0.2310E+02  0.1045E+03
    -17.382  0.2310E+02  0.1049E+03
    -17.368  0.2310E+02  0.1052E+03
    -17.355  0.2310E+02  0.1055E+03
    -17.341  0.2310E+02  0.1058E+03
    -17.327  0.2310E+02  0.1061E+03
    -17.314  0.2311E+02  0.1064E+03
    -17.300  0.2312E+02  0.1068E+03
    -17.286  0.2313E+02  0.1071E+03
    -17.272  0.2316E+02  0.1074E+03
    -17.259  0.2320E+02  0.1077E+03
    -17.245  0.2325E+02  0.1080E+03
    -17.231  0.2332E+02  0.1084E+03
    -17.217  0.2341E+02  0.1087E+03
    -17.204  0.2352E+02  0.1090E+03
    -17.190  0.2366E+02  0.1093E+03
    -17.176  0.2381E+02  0.1097E+03
    -17.163  0.2398E+02  0.1100E+03
    -17.149  0.2417E+02  0.1103E+03
    -17.135  0.2437E+02  0.1106E+03
    -17.121  0.2459E+02  0.1110E+03
    -17.108  0.2481E+02  0.1113E+03
    -17.094  0.2503E+02  0.1117E+03
    -17.080  0.2524E+02  0.1120E+03
    -17.067  0.2545E+02  0.1124E+03
    -17.053  0.2564E+02  0.1127E+03
    -17.039  0.2580E+02  0.1131E+03
    -17.025  0.2594E+02  0.1134E+03
    -17.012  0.2604E+02  0.1138E+03
    -16.998  0.2611E+02  0.1141E+03
    -16.984  0.2614E+02  0.1145E+03
    -16.970  0.2614E+02  0.1149E+03
    -16.957  0.2609E+02  0.1152E+03
    -16.943  0.2601E+02  0.1156E+03
    -16.929  0.2589E+02  0.1159E+03
    -16.916  0.2574E+02  0.1163E+03
    -16.902  0.2556E+02  0.1166E+03
    -16.888  0.2535E+02  0.1170E+03
    -16.874  0.2513E+02  0.1173E+03
    -16.861  0.2488E+02  0.1177E+03
    -16.847  0.2463E+02  0.1180E+03
    -16.833  0.2437E+02  0.1183E+03
    -16.819  0.2410E+02  0.1187E+03
    -16.806  0.2384E+02  0.1190E+03
    -16.792  0.2358E+02  0.1193E+03
    -16.778  0.2332E+02  0.1196E+03
    -16.765  0.2306E+02  0.1200E+03
    -16.751  0.2281E+02  0.1203E+03
    -16.737  0.2257E+02  0.1206E+03
    -16.723  0.2233E+02  0.1209E+03
    -16.710  0.2210E+02  0.1212E+03
    -16.696  0.2186E+02  0.1215E+03
    -16.682  0.2163E+02  0.1218E+03
    -16.668  0.2140E+02  0.1221E+03
    -16.655  0.2117E+02  0.1224E+03
    -16.641  0.2094E+02  0.1227E+03
    -16.627  0.2071E+02  0.1229E+03
    -16.614  0.2048E+02  0.1232E+03
    -16.600  0.2025E+02  0.1235E+03
    -16.586  0.2003E+02  0.1238E+03
    -16.572  0.1982E+02  0.1241E+03
    -16.559  0.1962E+02  0.1243E+03
    -16.545  0.1944E+02  0.1246E+03
    -16.531  0.1928E+02  0.1249E+03
    -16.517  0.1914E+02  0.1251E+03
    -16.504  0.1903E+02  0.1254E+03
    -16.490  0.1896E+02  0.1256E+03
    -16.476  0.1892E+02  0.1259E+03
    -16.463  0.1891E+02  0.1262E+03
    -16.449  0.1895E+02  0.1264E+03
    -16.435  0.1902E+02  0.1267E+03
    -16.421  0.1913E+02  0.1269E+03
    -16.408  0.1928E+02  0.1272E+03
    -16.394  0.1946E+02  0.1275E+03
    -16.380  0.1967E+02  0.1277E+03
    -16.366  0.1991E+02  0.1280E+03
    -16.353  0.2017E+02  0.1283E+03
    -16.339  0.2044E+02  0.1286E+03
    -16.325  0.2073E+02  0.1289E+03
    -16.312  0.2102E+02  0.1291E+03
    -16.298  0.2131E+02  0.1294E+03
    -16.284  0.2160E+02  0.1297E+03
    -16.270  0.2188E+02  0.1300E+03
    -16.257  0.2214E+02  0.1303E+03
    -16.243  0.2239E+02  0.1306E+03
    -16.229  0.2261E+02  0.1310E+03
    -16.215  0.2281E+02  0.1313E+03
    -16.202  0.2298E+02  0.1316E+03
    -16.188  0.2313E+02  0.1319E+03
    -16.174  0.2325E+02  0.1322E+03
    -16.161  0.2334E+02  0.1325E+03
    -16.147  0.2340E+02  0.1329E+03
    -16.133  0.2344E+02  0.1332E+03
    -16.119  0.2346E+02  0.1335E+03
    -16.106  0.2345E+02  0.1338E+03
    -16.092  0.2343E+02  0.1342E+03
    -16.078  0.2339E+02  0.1345E+03
    -16.064  0.2333E+02  0.1348E+03
    -16.051  0.2327E+02  0.1351E+03
    -16.037  0.2320E+02  0.1354E+03
    -16.023  0.2312E+02  0.1357E+03
    -16.010  0.2305E+02  0.1361E+03
    -15.996  0.2298E+02  0.1364E+03
    -15.982  0.2292E+02  0.1367E+03
    -15.968  0.2286E+02  0.1370E+03
    -15.955  0.2281E+02  0.1373E+03
    -15.941  0.2278E+02  0.1376E+03
    -15.927  0.2275E+02  0.1379E+03
    -15.913  0.2274E+02  0.1383E+03
    -15.900  0.2275E+02  0.1386E+03
    -15.886  0.2277E+02  0.1389E+03
    -15.872  0.2280E+02  0.1392E+03
    -15.859  0.2285E+02  0.1395E+03
    -15.845  0.2290E+02  0.1398E+03
    -15.831  0.2297E+02  0.1401E+03
    -15.817  0.2305E+02  0.1405E+03
    -15.804  0.2314E+02  0.1408E+03
    -15.790  0.2323E+02  0.1411E+03
    -15.776  0.2332E+02  0.1414E+03
    -15.762  0.2342E+02  0.1417E+03
    -15.749  0.2352E+02  0.1421E+03
    -15.735  0.2362E+02  0.1424E+03
    -15.721  0.2372E+02  0.1427E+03
    -15.708  0.2382E+02  0.1430E+03
    -15.694  0.2392E+02  0.1434E+03
    -15.680  0.2401E+02  0.1437E+03
    -15.666  0.2410E+02  0.1440E+03
    -15.653  0.2419E+02  0.1444E+03
    -15.639  0.2428E+02  0.1447E+03
    -15.625  0.2436E+02  0.1450E+03
    -15.612  0.2444E+02  0.1454E+03
    -15.598  0.2452E+02  0.1457E+03
    -15.584  0.2460E+02  0.1460E+03
    -15.570  0.2467E+02  0.1464E+03
    -15.557  0.2474E+02  0.1467E+03
    -15.543  0.2480E+02  0.1470E+03
    -15.529  0.2486E+02  0.1474E+03
    -15.515  0.2491E+02  0.1477E+03
    -15.502  0.2495E+02  0.1481E+03
    -15.488  0.2498E+02  0.1484E+03
    -15.474  0.2500E+02  0.1488E+03
    -15.461  0.2500E+02  0.1491E+03
    -15.447  0.2498E+02  0.1494E+03
    -15.433  0.2495E+02  0.1498E+03
    -15.419  0.2490E+02  0.1501E+03
    -15.406  0.2482E+02  0.1505E+03
    -15.392  0.2473E+02  0.1508E+03
    -15.378  0.2462E+02  0.1511E+03
    -15.364  0.2448E+02  0.1515E+03
    -15.351  0.2433E+02  0.1518E+03
    -15.337  0.2417E+02  0.1522E+03
    -15.323  0.2400E+02  0.1525E+03
    -15.310  0.2382E+02  0.1528E+03
    -15.296  0.2363E+02  0.1531E+03
    -15.282  0.2345E+02  0.1535E+03
    -15.268  0.2328E+02  0.1538E+03
    -15.255  0.2311E+02  0.1541E+03
    -15.241  0.2296E+02  0.1544E+03
    -15.227  0.2283E+02  0.1547E+03
    -15.213  0.2271E+02  0.1550E+03
    -15.200  0.2261E+02  0.1553E+03
    -15.186  0.2253E+02  0.1557E+03
    -15.172  0.2247E+02  0.1560E+03
    -15.159  0.2243E+02  0.1563E+03
    -15.145  0.2240E+02  0.1566E+03
    -15.131  0.2238E+02  0.1569E+03
    -15.117  0.2237E+02  0.1572E+03
    -15.104  0.2237E+02  0.1575E+03
    -15.090  0.2236E+02  0.1578E+03
    -15.076  0.2236E+02  0.1581E+03
    -15.062  0.2234E+02  0.1584E+03
    -15.049  0.2232E+02  0.1587E+03
    -15.035  0.2230E+02  0.1590E+03
    -15.021  0.2226E+02  0.1593E+03
    -15.008  0.2221E+02  0.1596E+03
    -14.994  0.2216E+02  0.1599E+03
    -14.980  0.2209E+02  0.1602E+03
    -14.966  0.2203E+02  0.1605E+03
    -14.953  0.2196E+02  0.1609E+03
    -14.939  0.2189E+02  0.1612E+03
    -14.925  0.2183E+02  0.1615E+03
    -14.911  0.2178E+02  0.1617E+03
    -14.898  0.2174E+02  0.1620E+03
    -14.884  0.2172E+02  0.1623E+03
    -14.870  0.2171E+02  0.1626E+03
    -14.857  0.2173E+02  0.1629E+03
    -14.843  0.2177E+02  0.1632E+03
    -14.829  0.2184E+02  0.1635E+03
    -14.815  0.2193E+02  0.1638E+03
    -14.802  0.2205E+02  0.1641E+03
    -14.788  0.2218E+02  0.1644E+03
    -14.774  0.2234E+02  0.1648E+03
    -14.760  0.2251E+02  0.1651E+03
    -14.747  0.2269E+02  0.1654E+03
    -14.733  0.2287E+02  0.1657E+03
    -14.719  0.2305E+02  0.1660E+03
    -14.706  0.2322E+02  0.1663E+03
    -14.692  0.2338E+02  0.1666E+03
    -14.678  0.2352E+02  0.1670E+03
    -14.664  0.2363E+02  0.1673E+03
    -14.651  0.2371E+02  0.1676E+03
    -14.637  0.2376E+02  0.1679E+03
    -14.623  0.2378E+02  0.1683E+03
    -14.609  0.2376E+02  0.1686E+03
    -14.596  0.2370E+02  0.1689E+03
    -14.582  0.2362E+02  0.1692E+03
    -14.568  0.2350E+02  0.1696E+03
    -14.555  0.2336E+02  0.1699E+03
    -14.541  0.2320E+02  0.1702E+03
    -14.527  0.2303E+02  0.1705E+03
    -14.513  0.2286E+02  0.1708E+03
    -14.500  0.2269E+02  0.1711E+03
    -14.486  0.2252E+02  0.1715E+03
    -14.472  0.2237E+02  0.1718E+03
    -14.458  0.2223E+02  0.1721E+03
    -14.445  0.2212E+02  0.1724E+03
    -14.431  0.2203E+02  0.1727E+03
    -14.417  0.2196E+02  0.1730E+03
    -14.404  0.2193E+02  0.1733E+03
    -14.390  0.2191E+02  0.1736E+03
    -14.376  0.2192E+02  0.1739E+03
    -14.362  0.2196E+02  0.1742E+03
    -14.349  0.2201E+02  0.1745E+03
    -14.335  0.2208E+02  0.1748E+03
    -14.321  0.2216E+02  0.1751E+03
    -14.308  0.2226E+02  0.1754E+03
    -14.294  0.2237E+02  0.1757E+03
    -14.280  0.2248E+02  0.1760E+03
    -14.266  0.2260E+02  0.1763E+03
    -14.253  0.2272E+02  0.1766E+03
    -14.239  0.2285E+02  0.1769E+03
    -14.225  0.2298E+02  0.1773E+03
    -14.211  0.2311E+02  0.1776E+03
    -14.198  0.2324E+02  0.1779E+03
    -14.184  0.2337E+02  0.1782E+03
    -14.170  0.2350E+02  0.1785E+03
    -14.157  0.2363E+02  0.1789E+03
    -14.143  0.2377E+02  0.1792E+03
    -14.129  0.2390E+02  0.1795E+03
    -14.115  0.2403E+02  0.1799E+03
    -14.102  0.2415E+02  0.1802E+03
    -14.088  0.2428E+02  0.1805E+03
    -14.074  0.2440E+02  0.1809E+03
    -14.060  0.2452E+02  0.1812E+03
    -14.047  0.2464E+02  0.1815E+03
    -14.033  0.2475E+02  0.1819E+03
    -14.019  0.2485E+02  0.1822E+03
    -14.006  0.2495E+02  0.1826E+03
    -13.992  0.2505E+02  0.1829E+03
    -13.978  0.2514E+02  0.1832E+03
    -13.964  0.2522E+02  0.1836E+03
    -13.951  0.2530E+02  0.1839E+03
    -13.937  0.2537E+02  0.1843E+03
    -13.923  0.2544E+02  0.1846E+03
    -13.909  0.2549E+02  0.1850E+03
    -13.896  0.2554E+02  0.1853E+03
    -13.882  0.2558E+02  0.1857E+03
    -13.868  0.2560E+02  0.1860E+03
    -13.855  0.2562E+02  0.1864E+03
    -13.841  0.2562E+02  0.1867E+03
    -13.827  0.2560E+02  0.1871E+03
    -13.813  0.2557E+02  0.1874E+03
    -13.800  0.2551E+02  0.1878E+03
    -13.786  0.2544E+02  0.1881E+03
    -13.772  0.2534E+02  0.1885E+03
    -13.758  0.2523E+02  0.1888E+03
    -13.745  0.2508E+02  0.1892E+03
    -13.731  0.2492E+02  0.1895E+03
    -13.717  0.2473E+02  0.1899E+03
    -13.704  0.2452E+02  0.1902E+03
    -13.690  0.2429E+02  0.1905E+03
    -13.676  0.2404E+02  0.1909E+03
    -13.662  0.2377E+02  0.1912E+03
    -13.649  0.2350E+02  0.1915E+03
    -13.635  0.2321E+02  0.1918E+03
    -13.621  0.2293E+02  0.1921E+03
    -13.607  0.2265E+02  0.1925E+03
    -13.594  0.2238E+02  0.1928E+03
    -13.580  0.2213E+02  0.1931E+03
    -13.566  0.2190E+02  0.1934E+03
    -13.553  0.2169E+02  0.1937E+03
    -13.539  0.2152E+02  0.1940E+03
    -13.525  0.2139E+02  0.1942E+03
    -13.511  0.2130E+02  0.1945E+03
    -13.498  0.2125E+02  0.1948E+03
    -13.484  0.2124E+02  0.1951E+03
    -13.470  0.2128E+02  0.1954E+03
    -13.456  0.2136E+02  0.1957E+03
    -13.443  0.2149E+02  0.1960E+03
    -13.429  0.2165E+02  0.1963E+03
    -13.415  0.2185E+02  0.1966E+03
    -13.402  0.2207E+02  0.1969E+03
    -13.388  0.2232E+02  0.1972E+03
    -13.374  0.2259E+02  0.1975E+03
    -13.360  0.2287E+02  0.1978E+03
    -13.347  0.2316E+02  0.1982E+03
    -13.333  0.2345E+02  0.1985E+03
    -13.319  0.2373E+02  0.1988E+03
    -13.305  0.2401E+02  0.1991E+03
    -13.292  0.2427E+02  0.1995E+03
    -13.278  0.2452E+02  0.1998E+03
    -13.264  0.2476E+02  0.2001E+03
    -13.251  0.2497E+02  0.2005E+03
    -13.237  0.2517E+02  0.2008E+03
    -13.223  0.2535E+02  0.2012E+03
    -13.209  0.2552E+02  0.2015E+03
    -13.196  0.2567E+02  0.2019E+03
    -13.182  0.2580E+02  0.2022E+03
    -13.168  0.2593E+02  0.2026E+03
    -13.154  0.2605E+02  0.2029E+03
    -13.141  0.2617E+02  0.2033E+03
    -13.127  0.2628E+02  0.2037E+03
    -13.113  0.2639E+02  0.2040E+03
    -13.100  0.2651E+02  0.2044E+03
    -13.086  0.2663E+02  0.2048E+03
    -13.072  0.2676E+02  0.2051E+03
    -13.058  0.2689E+02  0.2055E+03
    -13.045  0.2703E+02  0.2059E+03
    -13.031  0.2719E+02  0.2062E+03
    -13.017  0.2735E+02  0.2066E+03
    -13.003  0.2752E+02  0.2070E+03
    -12.990  0.2769E+02  0.2074E+03
    -12.976  0.2787E+02  0.2078E+03
    -12.962  0.2806E+02  0.2081E+03
    -12.949  0.2824E+02  0.2085E+03