 212 212   0   0
  0.5408119E+02  0.2778972E-08  0.2062852E-08  0.2000000E-08  0.5000000E-15
  1.000000000000000E-004
  CAR 
 unknown system                          
      2.81855465    -24.74838010 2000     -4.00650552      1.00000000
    -24.748  0.0000E+00  0.0000E+00
    -24.735  0.0000E+00  0.0000E+00
    -24.721  0.0000E+00  0.0000E+00
    -24.707  0.0000E+00  0.0000E+00
    -24.693  0.0000E+00  0.0000E+00
    -24.679  0.0000E+00  0.0000E+00
    -24.666  0.0000E+00  0.0000E+00
    -24.652  0.0000E+00  0.0000E+00
    -24.638  0.0000E+00  0.0000E+00
    -24.624  0.0000E+00  0.0000E+00
    -24.610  0.0000E+00  0.0000E+00
    -24.597  0.0000E+00  0.0000E+00
    -24.583  0.0000E+00  0.0000E+00
    -24.569  0.0000E+00  0.0000E+00
    -24.555  0.0000E+00  0.0000E+00
    -24.542  0.0000E+00  0.0000E+00
    -24.528  0.0000E+00  0.0000E+00
    -24.514  0.0000E+00  0.0000E+00
    -24.500  0.0000E+00  0.0000E+00
    -24.486  0.0000E+00  0.0000E+00
    -24.473  0.0000E+00  0.0000E+00
    -24.459  0.0000E+00  0.0000E+00
    -24.445  0.0000E+00  0.0000E+00
    -24.431  0.0000E+00  0.0000E+00
    -24.417  0.0000E+00  0.0000E+00
    -24.404  0.0000E+00  0.0000E+00
    -24.390  0.0000E+00  0.0000E+00
    -24.376  0.0000E+00  0.0000E+00
    -24.362  0.0000E+00  0.0000E+00
    -24.348  0.0000E+00  0.0000E+00
    -24.335  0.0000E+00  0.0000E+00
    -24.321  0.0000E+00  0.0000E+00
    -24.307  0.0000E+00  0.0000E+00
    -24.293  0.0000E+00  0.0000E+00
    -24.280  0.0000E+00  0.0000E+00
    -24.266  0.0000E+00  0.0000E+00
    -24.252  0.0000E+00  0.0000E+00
    -24.238  0.0000E+00  0.0000E+00
    -24.224  0.0000E+00  0.0000E+00
    -24.211  0.0000E+00  0.0000E+00
    -24.197  0.0000E+00  0.0000E+00
    -24.183  0.0000E+00  0.0000E+00
    -24.169  0.0000E+00  0.0000E+00
    -24.155  0.0000E+00  0.0000E+00
    -24.142  0.0000E+00  0.0000E+00
    -24.128  0.0000E+00  0.0000E+00
    -24.114  0.0000E+00  0.0000E+00
    -24.100  0.0000E+00  0.0000E+00
    -24.086  0.0000E+00  0.0000E+00
    -24.073  0.0000E+00  0.0000E+00
    -24.059  0.0000E+00  0.0000E+00
    -24.045  0.0000E+00  0.0000E+00
    -24.031  0.0000E+00  0.0000E+00
    -24.017  0.0000E+00  0.0000E+00
    -24.004  0.0000E+00  0.0000E+00
    -23.990  0.0000E+00  0.0000E+00
    -23.976  0.0000E+00  0.0000E+00
    -23.962  0.0000E+00  0.0000E+00
    -23.949  0.0000E+00  0.0000E+00
    -23.935  0.0000E+00  0.0000E+00
    -23.921  0.8051E-14  0.1110E-15
    -23.907  0.8051E-14  0.2220E-15
    -23.893  0.2415E-13  0.5551E-15
    -23.880  0.4294E-13  0.1147E-14
    -23.866  0.1073E-12  0.2628E-14
    -23.852  0.2227E-12  0.5699E-14
    -23.838  0.4750E-12  0.1225E-13
    -23.824  0.1017E-11  0.2628E-13
    -23.811  0.2132E-11  0.5567E-13
    -23.797  0.4439E-11  0.1169E-12
    -23.783  0.9152E-11  0.2431E-12
    -23.769  0.1868E-10  0.5006E-12
    -23.755  0.3780E-10  0.1022E-11
    -23.742  0.7572E-10  0.2066E-11
    -23.728  0.1503E-09  0.4139E-11
    -23.714  0.2955E-09  0.8214E-11
    -23.700  0.5755E-09  0.1615E-10
    -23.687  0.1110E-08  0.3146E-10
    -23.673  0.2122E-08  0.6072E-10
    -23.659  0.4017E-08  0.1161E-09
    -23.645  0.7532E-08  0.2200E-09
    -23.631  0.1399E-07  0.4129E-09
    -23.618  0.2575E-07  0.7680E-09
    -23.604  0.4693E-07  0.1415E-08
    -23.590  0.8475E-07  0.2584E-08
    -23.576  0.1516E-06  0.4675E-08
    -23.562  0.2686E-06  0.8379E-08
    -23.549  0.4715E-06  0.1488E-07
    -23.535  0.8199E-06  0.2619E-07
    -23.521  0.1412E-05  0.4567E-07
    -23.507  0.2410E-05  0.7890E-07
    -23.493  0.4074E-05  0.1351E-06
    -23.480  0.6823E-05  0.2292E-06
    -23.466  0.1132E-04  0.3853E-06
    -23.452  0.1860E-04  0.6418E-06
    -23.438  0.3029E-04  0.1060E-05
    -23.425  0.4886E-04  0.1733E-05
    -23.411  0.7807E-04  0.2810E-05
    -23.397  0.1236E-03  0.4514E-05
    -23.383  0.1938E-03  0.7188E-05
    -23.369  0.3012E-03  0.1134E-04
    -23.356  0.4637E-03  0.1774E-04
    -23.342  0.7072E-03  0.2749E-04
    -23.328  0.1069E-02  0.4223E-04
    -23.314  0.1600E-02  0.6429E-04
    -23.300  0.2373E-02  0.9702E-04
    -23.287  0.3488E-02  0.1451E-03
    -23.273  0.5080E-02  0.2152E-03
    -23.259  0.7330E-02  0.3163E-03
    -23.245  0.1048E-01  0.4608E-03
    -23.231  0.1485E-01  0.6656E-03
    -23.218  0.2084E-01  0.9530E-03
    -23.204  0.2900E-01  0.1353E-02
    -23.190  0.3998E-01  0.1904E-02
    -23.176  0.5462E-01  0.2657E-02
    -23.162  0.7395E-01  0.3677E-02
    -23.149  0.9922E-01  0.5045E-02
    -23.135  0.1320E+00  0.6865E-02
    -23.121  0.1739E+00  0.9264E-02
    -23.107  0.2272E+00  0.1240E-01
    -23.094  0.2943E+00  0.1646E-01
    -23.080  0.3777E+00  0.2166E-01
    -23.066  0.4807E+00  0.2829E-01
    -23.052  0.6064E+00  0.3666E-01
    -23.038  0.7584E+00  0.4711E-01
    -23.025  0.9404E+00  0.6008E-01
    -23.011  0.1156E+01  0.7603E-01
    -22.997  0.1409E+01  0.9546E-01
    -22.983  0.1704E+01  0.1190E+00
    -22.969  0.2043E+01  0.1471E+00
    -22.956  0.2429E+01  0.1806E+00
    -22.942  0.2864E+01  0.2201E+00
    -22.928  0.3350E+01  0.2663E+00
    -22.914  0.3886E+01  0.3199E+00
    -22.900  0.4473E+01  0.3816E+00
    -22.887  0.5108E+01  0.4520E+00
    -22.873  0.5786E+01  0.5318E+00
    -22.859  0.6504E+01  0.6215E+00
    -22.845  0.7255E+01  0.7216E+00
    -22.832  0.8031E+01  0.8323E+00
    -22.818  0.8822E+01  0.9540E+00
    -22.804  0.9620E+01  0.1087E+01
    -22.790  0.1041E+02  0.1230E+01
    -22.776  0.1119E+02  0.1384E+01
    -22.763  0.1193E+02  0.1549E+01
    -22.749  0.1263E+02  0.1723E+01
    -22.735  0.1328E+02  0.1906E+01
    -22.721  0.1387E+02  0.2098E+01
    -22.707  0.1439E+02  0.2296E+01
    -22.694  0.1482E+02  0.2501E+01
    -22.680  0.1517E+02  0.2710E+01
    -22.666  0.1543E+02  0.2923E+01
    -22.652  0.1561E+02  0.3138E+01
    -22.638  0.1569E+02  0.3354E+01
    -22.625  0.1569E+02  0.3571E+01
    -22.611  0.1562E+02  0.3786E+01
    -22.597  0.1548E+02  0.3999E+01
    -22.583  0.1528E+02  0.4210E+01
    -22.570  0.1505E+02  0.4418E+01
    -22.556  0.1478E+02  0.4621E+01
    -22.542  0.1451E+02  0.4822E+01
    -22.528  0.1425E+02  0.5018E+01
    -22.514  0.1401E+02  0.5211E+01
    -22.501  0.1381E+02  0.5402E+01
    -22.487  0.1366E+02  0.5590E+01
    -22.473  0.1357E+02  0.5777E+01
    -22.459  0.1355E+02  0.5964E+01
    -22.445  0.1362E+02  0.6152E+01
    -22.432  0.1376E+02  0.6342E+01
    -22.418  0.1400E+02  0.6535E+01
    -22.404  0.1431E+02  0.6732E+01
    -22.390  0.1470E+02  0.6935E+01
    -22.376  0.1516E+02  0.7144E+01
    -22.363  0.1567E+02  0.7360E+01
    -22.349  0.1623E+02  0.7584E+01
    -22.335  0.1682E+02  0.7815E+01
    -22.321  0.1742E+02  0.8056E+01
    -22.307  0.1802E+02  0.8304E+01
    -22.294  0.1861E+02  0.8561E+01
    -22.280  0.1916E+02  0.8825E+01
    -22.266  0.1966E+02  0.9096E+01
    -22.252  0.2011E+02  0.9373E+01
    -22.239  0.2049E+02  0.9656E+01
    -22.225  0.2079E+02  0.9943E+01
    -22.211  0.2101E+02  0.1023E+02
    -22.197  0.2115E+02  0.1052E+02
    -22.183  0.2121E+02  0.1082E+02
    -22.170  0.2120E+02  0.1111E+02
    -22.156  0.2112E+02  0.1140E+02
    -22.142  0.2098E+02  0.1169E+02
    -22.128  0.2079E+02  0.1198E+02
    -22.114  0.2057E+02  0.1226E+02
    -22.101  0.2034E+02  0.1254E+02
    -22.087  0.2010E+02  0.1282E+02
    -22.073  0.1987E+02  0.1309E+02
    -22.059  0.1966E+02  0.1336E+02
    -22.045  0.1950E+02  0.1363E+02
    -22.032  0.1938E+02  0.1390E+02
    -22.018  0.1933E+02  0.1417E+02
    -22.004  0.1933E+02  0.1443E+02
    -21.990  0.1942E+02  0.1470E+02
    -21.977  0.1957E+02  0.1497E+02
    -21.963  0.1980E+02  0.1524E+02
    -21.949  0.2010E+02  0.1552E+02
    -21.935  0.2047E+02  0.1580E+02
    -21.921  0.2091E+02  0.1609E+02
    -21.908  0.2140E+02  0.1639E+02
    -21.894  0.2195E+02  0.1669E+02
    -21.880  0.2253E+02  0.1700E+02
    -21.866  0.2315E+02  0.1732E+02
    -21.852  0.2380E+02  0.1765E+02
    -21.839  0.2446E+02  0.1798E+02
    -21.825  0.2512E+02  0.1833E+02
    -21.811  0.2578E+02  0.1869E+02
    -21.797  0.2642E+02  0.1905E+02
    -21.783  0.2704E+02  0.1942E+02
    -21.770  0.2763E+02  0.1980E+02
    -21.756  0.2818E+02  0.2019E+02
    -21.742  0.2867E+02  0.2059E+02
    -21.728  0.2911E+02  0.2099E+02
    -21.715  0.2949E+02  0.2140E+02
    -21.701  0.2980E+02  0.2181E+02
    -21.687  0.3005E+02  0.2222E+02
    -21.673  0.3022E+02  0.2264E+02
    -21.659  0.3032E+02  0.2306E+02
    -21.646  0.3036E+02  0.2348E+02
    -21.632  0.3033E+02  0.2389E+02
    -21.618  0.3025E+02  0.2431E+02
    -21.604  0.3013E+02  0.2473E+02
    -21.590  0.2997E+02  0.2514E+02
    -21.577  0.2978E+02  0.2555E+02
    -21.563  0.2958E+02  0.2596E+02
    -21.549  0.2938E+02  0.2636E+02
    -21.535  0.2919E+02  0.2677E+02
    -21.521  0.2903E+02  0.2717E+02
    -21.508  0.2890E+02  0.2756E+02
    -21.494  0.2881E+02  0.2796E+02
    -21.480  0.2877E+02  0.2836E+02
    -21.466  0.2879E+02  0.2876E+02
    -21.452  0.2887E+02  0.2915E+02
    -21.439  0.2901E+02  0.2955E+02
    -21.425  0.2921E+02  0.2996E+02
    -21.411  0.2946E+02  0.3036E+02
    -21.397  0.2975E+02  0.3077E+02
    -21.384  0.3009E+02  0.3119E+02
    -21.370  0.3046E+02  0.3161E+02
    -21.356  0.3085E+02  0.3203E+02
    -21.342  0.3124E+02  0.3246E+02
    -21.328  0.3165E+02  0.3290E+02
    -21.315  0.3204E+02  0.3334E+02
    -21.301  0.3242E+02  0.3379E+02
    -21.287  0.3277E+02  0.3424E+02
    -21.273  0.3310E+02  0.3470E+02
    -21.259  0.3340E+02  0.3516E+02
    -21.246  0.3366E+02  0.3562E+02
    -21.232  0.3389E+02  0.3609E+02
    -21.218  0.3409E+02  0.3656E+02
    -21.204  0.3425E+02  0.3703E+02
    -21.190  0.3439E+02  0.3751E+02
    -21.177  0.3450E+02  0.3798E+02
    -21.163  0.3460E+02  0.3846E+02
    -21.149  0.3467E+02  0.3894E+02
    -21.135  0.3473E+02  0.3942E+02
    -21.122  0.3478E+02  0.3990E+02
    -21.108  0.3481E+02  0.4038E+02
    -21.094  0.3484E+02  0.4086E+02
    -21.080  0.3485E+02  0.4134E+02
    -21.066  0.3486E+02  0.4182E+02
    -21.053  0.3485E+02  0.4230E+02
    -21.039  0.3483E+02  0.4278E+02
    -21.025  0.3479E+02  0.4326E+02
    -21.011  0.3473E+02  0.4374E+02
    -20.997  0.3465E+02  0.4422E+02
    -20.984  0.3454E+02  0.4469E+02
    -20.970  0.3441E+02  0.4517E+02
    -20.956  0.3425E+02  0.4564E+02
    -20.942  0.3405E+02  0.4611E+02
    -20.928  0.3382E+02  0.4657E+02
    -20.915  0.3356E+02  0.4704E+02
    -20.901  0.3327E+02  0.4750E+02
    -20.887  0.3295E+02  0.4795E+02
    -20.873  0.3261E+02  0.4840E+02
    -20.859  0.3224E+02  0.4884E+02
    -20.846  0.3185E+02  0.4928E+02
    -20.832  0.3145E+02  0.4972E+02
    -20.818  0.3103E+02  0.5015E+02
    -20.804  0.3062E+02  0.5057E+02
    -20.791  0.3021E+02  0.5098E+02
    -20.777  0.2980E+02  0.5140E+02
    -20.763  0.2942E+02  0.5180E+02
    -20.749  0.2905E+02  0.5220E+02
    -20.735  0.2871E+02  0.5260E+02
    -20.722  0.2840E+02  0.5299E+02
    -20.708  0.2813E+02  0.5338E+02
    -20.694  0.2790E+02  0.5376E+02
    -20.680  0.2771E+02  0.5414E+02
    -20.666  0.2756E+02  0.5452E+02
    -20.653  0.2745E+02  0.5490E+02
    -20.639  0.2738E+02  0.5528E+02
    -20.625  0.2736E+02  0.5566E+02
    -20.611  0.2737E+02  0.5604E+02
    -20.597  0.2741E+02  0.5641E+02
    -20.584  0.2749E+02  0.5679E+02
    -20.570  0.2759E+02  0.5717E+02
    -20.556  0.2772E+02  0.5755E+02
    -20.542  0.2787E+02  0.5794E+02
    -20.529  0.2804E+02  0.5833E+02
    -20.515  0.2822E+02  0.5871E+02
    -20.501  0.2842E+02  0.5911E+02
    -20.487  0.2863E+02  0.5950E+02
    -20.473  0.2886E+02  0.5990E+02
    -20.460  0.2909E+02  0.6030E+02
    -20.446  0.2934E+02  0.6071E+02
    -20.432  0.2960E+02  0.6111E+02
    -20.418  0.2986E+02  0.6153E+02
    -20.404  0.3014E+02  0.6194E+02
    -20.391  0.3042E+02  0.6236E+02
    -20.377  0.3071E+02  0.6278E+02
    -20.363  0.3100E+02  0.6321E+02
    -20.349  0.3129E+02  0.6364E+02
    -20.335  0.3157E+02  0.6408E+02
    -20.322  0.3184E+02  0.6452E+02
    -20.308  0.3210E+02  0.6496E+02
    -20.294  0.3234E+02  0.6541E+02
    -20.280  0.3255E+02  0.6586E+02
    -20.267  0.3274E+02  0.6631E+02
    -20.253  0.3289E+02  0.6676E+02
    -20.239  0.3301E+02  0.6722E+02
    -20.225  0.3309E+02  0.6767E+02
    -20.211  0.3314E+02  0.6813E+02
    -20.198  0.3316E+02  0.6859E+02
    -20.184  0.3314E+02  0.6904E+02
    -20.170  0.3309E+02  0.6950E+02
    -20.156  0.3303E+02  0.6995E+02
    -20.142  0.3294E+02  0.7041E+02
    -20.129  0.3284E+02  0.7086E+02
    -20.115  0.3274E+02  0.7131E+02
    -20.101  0.3265E+02  0.7176E+02
    -20.087  0.3256E+02  0.7221E+02
    -20.073  0.3248E+02  0.7266E+02
    -20.060  0.3242E+02  0.7311E+02
    -20.046  0.3239E+02  0.7355E+02
    -20.032  0.3237E+02  0.7400E+02
    -20.018  0.3238E+02  0.7445E+02
    -20.004  0.3240E+02  0.7489E+02
    -19.991  0.3245E+02  0.7534E+02
    -19.977  0.3251E+02  0.7579E+02
    -19.963  0.3258E+02  0.7624E+02
    -19.949  0.3266E+02  0.7669E+02
    -19.936  0.3274E+02  0.7714E+02
    -19.922  0.3282E+02  0.7759E+02
    -19.908  0.3288E+02  0.7805E+02
    -19.894  0.3293E+02  0.7850E+02
    -19.880  0.3297E+02  0.7896E+02
    -19.867  0.3299E+02  0.7941E+02
    -19.853  0.3300E+02  0.7987E+02
    -19.839  0.3298E+02  0.8032E+02
    -19.825  0.3295E+02  0.8078E+02
    -19.811  0.3291E+02  0.8123E+02
    -19.798  0.3285E+02  0.8168E+02
    -19.784  0.3279E+02  0.8213E+02
    -19.770  0.3273E+02  0.8259E+02
    -19.756  0.3266E+02  0.8304E+02
    -19.742  0.3260E+02  0.8349E+02
    -19.729  0.3254E+02  0.8393E+02
    -19.715  0.3250E+02  0.8438E+02
    -19.701  0.3246E+02  0.8483E+02
    -19.687  0.3244E+02  0.8528E+02
    -19.674  0.3242E+02  0.8572E+02
    -19.660  0.3241E+02  0.8617E+02
    -19.646  0.3242E+02  0.8662E+02
    -19.632  0.3243E+02  0.8707E+02
    -19.618  0.3244E+02  0.8751E+02
    -19.605  0.3247E+02  0.8796E+02
    -19.591  0.3249E+02  0.8841E+02
    -19.577  0.3252E+02  0.8886E+02
    -19.563  0.3256E+02  0.8931E+02
    -19.549  0.3260E+02  0.8976E+02
    -19.536  0.3265E+02  0.9021E+02
    -19.522  0.3271E+02  0.9066E+02
    -19.508  0.3278E+02  0.9111E+02
    -19.494  0.3286E+02  0.9156E+02
    -19.480  0.3296E+02  0.9202E+02
    -19.467  0.3307E+02  0.9247E+02
    -19.453  0.3321E+02  0.9293E+02
    -19.439  0.3336E+02  0.9339E+02
    -19.425  0.3354E+02  0.9385E+02
    -19.412  0.3373E+02  0.9432E+02
    -19.398  0.3395E+02  0.9479E+02
    -19.384  0.3417E+02  0.9526E+02
    -19.370  0.3441E+02  0.9573E+02
    -19.356  0.3465E+02  0.9621E+02
    -19.343  0.3490E+02  0.9669E+02
    -19.329  0.3513E+02  0.9718E+02
    -19.315  0.3536E+02  0.9766E+02
    -19.301  0.3557E+02  0.9816E+02
    -19.287  0.3575E+02  0.9865E+02
    -19.274  0.3590E+02  0.9914E+02
    -19.260  0.3602E+02  0.9964E+02
    -19.246  0.3610E+02  0.1001E+03
    -19.232  0.3613E+02  0.1006E+03
    -19.218  0.3613E+02  0.1011E+03
    -19.205  0.3607E+02  0.1016E+03
    -19.191  0.3598E+02  0.1021E+03
    -19.177  0.3583E+02  0.1026E+03
    -19.163  0.3565E+02  0.1031E+03
    -19.149  0.3543E+02  0.1036E+03
    -19.136  0.3517E+02  0.1041E+03
    -19.122  0.3489E+02  0.1046E+03
    -19.108  0.3458E+02  0.1050E+03
    -19.094  0.3425E+02  0.1055E+03
    -19.081  0.3391E+02  0.1060E+03
    -19.067  0.3357E+02  0.1064E+03
    -19.053  0.3322E+02  0.1069E+03
    -19.039  0.3288E+02  0.1074E+03
    -19.025  0.3255E+02  0.1078E+03
    -19.012  0.3224E+02  0.1083E+03
    -18.998  0.3194E+02  0.1087E+03
    -18.984  0.3166E+02  0.1091E+03
    -18.970  0.3140E+02  0.1096E+03
    -18.956  0.3117E+02  0.1100E+03
    -18.943  0.3096E+02  0.1104E+03
    -18.929  0.3077E+02  0.1108E+03
    -18.915  0.3060E+02  0.1113E+03
    -18.901  0.3044E+02  0.1117E+03
    -18.887  0.3031E+02  0.1121E+03
    -18.874  0.3018E+02  0.1125E+03
    -18.860  0.3007E+02  0.1129E+03
    -18.846  0.2996E+02  0.1133E+03
    -18.832  0.2985E+02  0.1138E+03
    -18.819  0.2974E+02  0.1142E+03
    -18.805  0.2963E+02  0.1146E+03
    -18.791  0.2951E+02  0.1150E+03
    -18.777  0.2939E+02  0.1154E+03
    -18.763  0.2927E+02  0.1158E+03
    -18.750  0.2915E+02  0.1162E+03
    -18.736  0.2902E+02  0.1166E+03
    -18.722  0.2890E+02  0.1170E+03
    -18.708  0.2878E+02  0.1174E+03
    -18.694  0.2868E+02  0.1178E+03
    -18.681  0.2860E+02  0.1182E+03
    -18.667  0.2853E+02  0.1186E+03
    -18.653  0.2850E+02  0.1190E+03
    -18.639  0.2851E+02  0.1194E+03
    -18.625  0.2856E+02  0.1198E+03
    -18.612  0.2865E+02  0.1202E+03
    -18.598  0.2881E+02  0.1205E+03
    -18.584  0.2901E+02  0.1209E+03
    -18.570  0.2928E+02  0.1214E+03
    -18.557  0.2962E+02  0.1218E+03
    -18.543  0.3001E+02  0.1222E+03
    -18.529  0.3047E+02  0.1226E+03
    -18.515  0.3100E+02  0.1230E+03
    -18.501  0.3158E+02  0.1235E+03
    -18.488  0.3222E+02  0.1239E+03
    -18.474  0.3290E+02  0.1244E+03
    -18.460  0.3362E+02  0.1248E+03
    -18.446  0.3437E+02  0.1253E+03
    -18.432  0.3515E+02  0.1258E+03
    -18.419  0.3594E+02  0.1263E+03
    -18.405  0.3672E+02  0.1268E+03
    -18.391  0.3750E+02  0.1273E+03
    -18.377  0.3826E+02  0.1278E+03
    -18.363  0.3898E+02  0.1284E+03
    -18.350  0.3967E+02  0.1289E+03
    -18.336  0.4031E+02  0.1295E+03
    -18.322  0.4089E+02  0.1300E+03
    -18.308  0.4140E+02  0.1306E+03
    -18.294  0.4186E+02  0.1312E+03
    -18.281  0.4224E+02  0.1318E+03
    -18.267  0.4255E+02  0.1323E+03
    -18.253  0.4279E+02  0.1329E+03
    -18.239  0.4297E+02  0.1335E+03
    -18.226  0.4307E+02  0.1341E+03
    -18.212  0.4312E+02  0.1347E+03
    -18.198  0.4311E+02  0.1353E+03
    -18.184  0.4305E+02  0.1359E+03
    -18.170  0.4295E+02  0.1365E+03
    -18.157  0.4281E+02  0.1371E+03
    -18.143  0.4264E+02  0.1377E+03
    -18.129  0.4245E+02  0.1383E+03
    -18.115  0.4223E+02  0.1388E+03
    -18.101  0.4201E+02  0.1394E+03
    -18.088  0.4177E+02  0.1400E+03
    -18.074  0.4152E+02  0.1406E+03
    -18.060  0.4127E+02  0.1411E+03
    -18.046  0.4102E+02  0.1417E+03
    -18.032  0.4076E+02  0.1423E+03
    -18.019  0.4050E+02  0.1428E+03
    -18.005  0.4024E+02  0.1434E+03
    -17.991  0.3997E+02  0.1439E+03
    -17.977  0.3969E+02  0.1445E+03
    -17.964  0.3940E+02  0.1450E+03
    -17.950  0.3911E+02  0.1456E+03
    -17.936  0.3880E+02  0.1461E+03
    -17.922  0.3847E+02  0.1466E+03
    -17.908  0.3812E+02  0.1472E+03
    -17.895  0.3776E+02  0.1477E+03
    -17.881  0.3739E+02  0.1482E+03
    -17.867  0.3699E+02  0.1487E+03
    -17.853  0.3659E+02  0.1492E+03
    -17.839  0.3617E+02  0.1497E+03
    -17.826  0.3575E+02  0.1502E+03
    -17.812  0.3532E+02  0.1507E+03
    -17.798  0.3489E+02  0.1512E+03
    -17.784  0.3447E+02  0.1516E+03
    -17.770  0.3405E+02  0.1521E+03
    -17.757  0.3366E+02  0.1526E+03
    -17.743  0.3328E+02  0.1530E+03
    -17.729  0.3293E+02  0.1535E+03
    -17.715  0.3260E+02  0.1539E+03
    -17.702  0.3230E+02  0.1544E+03
    -17.688  0.3204E+02  0.1548E+03
    -17.674  0.3181E+02  0.1553E+03
    -17.660  0.3162E+02  0.1557E+03
    -17.646  0.3147E+02  0.1561E+03
    -17.633  0.3135E+02  0.1566E+03
    -17.619  0.3127E+02  0.1570E+03
    -17.605  0.3122E+02  0.1574E+03
    -17.591  0.3120E+02  0.1579E+03
    -17.577  0.3122E+02  0.1583E+03
    -17.564  0.3126E+02  0.1587E+03
    -17.550  0.3133E+02  0.1592E+03
    -17.536  0.3143E+02  0.1596E+03
    -17.522  0.3154E+02  0.1600E+03
    -17.508  0.3167E+02  0.1605E+03
    -17.495  0.3182E+02  0.1609E+03
    -17.481  0.3197E+02  0.1613E+03
    -17.467  0.3214E+02  0.1618E+03
    -17.453  0.3232E+02  0.1622E+03
    -17.439  0.3250E+02  0.1627E+03
    -17.426  0.3268E+02  0.1631E+03
    -17.412  0.3287E+02  0.1636E+03
    -17.398  0.3306E+02  0.1640E+03
    -17.384  0.3325E+02  0.1645E+03
    -17.371  0.3344E+02  0.1650E+03
    -17.357  0.3363E+02  0.1654E+03
    -17.343  0.3383E+02  0.1659E+03
    -17.329  0.3402E+02  0.1664E+03
    -17.315  0.3422E+02  0.1668E+03
    -17.302  0.3442E+02  0.1673E+03
    -17.288  0.3461E+02  0.1678E+03
    -17.274  0.3481E+02  0.1683E+03
    -17.260  0.3500E+02  0.1687E+03
    -17.246  0.3518E+02  0.1692E+03
    -17.233  0.3535E+02  0.1697E+03
    -17.219  0.3551E+02  0.1702E+03
    -17.205  0.3566E+02  0.1707E+03
    -17.191  0.3578E+02  0.1712E+03
    -17.177  0.3588E+02  0.1717E+03
    -17.164  0.3595E+02  0.1722E+03
    -17.150  0.3599E+02  0.1727E+03
    -17.136  0.3600E+02  0.1732E+03
    -17.122  0.3598E+02  0.1737E+03
    -17.109  0.3591E+02  0.1742E+03
    -17.095  0.3581E+02  0.1747E+03
    -17.081  0.3566E+02  0.1751E+03
    -17.067  0.3548E+02  0.1756E+03
    -17.053  0.3526E+02  0.1761E+03
    -17.040  0.3501E+02  0.1766E+03
    -17.026  0.3472E+02  0.1771E+03
    -17.012  0.3441E+02  0.1776E+03
    -16.998  0.3407E+02  0.1780E+03
    -16.984  0.3372E+02  0.1785E+03
    -16.971  0.3335E+02  0.1790E+03
    -16.957  0.3297E+02  0.1794E+03
    -16.943  0.3259E+02  0.1799E+03
    -16.929  0.3222E+02  0.1803E+03
    -16.915  0.3186E+02  0.1807E+03
    -16.902  0.3151E+02  0.1812E+03
    -16.888  0.3118E+02  0.1816E+03
    -16.874  0.3088E+02  0.1820E+03
    -16.860  0.3061E+02  0.1825E+03
    -16.847  0.3037E+02  0.1829E+03
    -16.833  0.3017E+02  0.1833E+03
    -16.819  0.3000E+02  0.1837E+03
    -16.805  0.2988E+02  0.1841E+03
    -16.791  0.2979E+02  0.1845E+03
    -16.778  0.2974E+02  0.1849E+03
    -16.764  0.2972E+02  0.1853E+03
    -16.750  0.2974E+02  0.1858E+03
    -16.736  0.2979E+02  0.1862E+03
    -16.722  0.2987E+02  0.1866E+03
    -16.709  0.2997E+02  0.1870E+03
    -16.695  0.3008E+02  0.1874E+03
    -16.681  0.3021E+02  0.1878E+03
    -16.667  0.3036E+02  0.1882E+03
    -16.653  0.3050E+02  0.1887E+03
    -16.640  0.3065E+02  0.1891E+03
    -16.626  0.3080E+02  0.1895E+03
    -16.612  0.3094E+02  0.1899E+03
    -16.598  0.3107E+02  0.1904E+03
    -16.584  0.3119E+02  0.1908E+03
    -16.571  0.3130E+02  0.1912E+03
    -16.557  0.3140E+02  0.1917E+03
    -16.543  0.3148E+02  0.1921E+03
    -16.529  0.3154E+02  0.1925E+03
    -16.516  0.3159E+02  0.1930E+03
    -16.502  0.3163E+02  0.1934E+03
    -16.488  0.3165E+02  0.1938E+03
    -16.474  0.3166E+02  0.1943E+03
    -16.460  0.3167E+02  0.1947E+03
    -16.447  0.3167E+02  0.1951E+03
    -16.433  0.3167E+02  0.1956E+03
    -16.419  0.3167E+02  0.1960E+03
    -16.405  0.3168E+02  0.1965E+03
    -16.391  0.3170E+02  0.1969E+03
    -16.378  0.3174E+02  0.1973E+03
    -16.364  0.3181E+02  0.1978E+03
    -16.350  0.3190E+02  0.1982E+03
    -16.336  0.3202E+02  0.1987E+03
    -16.322  0.3218E+02  0.1991E+03
    -16.309  0.3238E+02  0.1995E+03
    -16.295  0.3262E+02  0.2000E+03
    -16.281  0.3291E+02  0.2004E+03
    -16.267  0.3325E+02  0.2009E+03
    -16.254  0.3363E+02  0.2014E+03
    -16.240  0.3405E+02  0.2018E+03
    -16.226  0.3452E+02  0.2023E+03
    -16.212  0.3501E+02  0.2028E+03
    -16.198  0.3554E+02  0.2033E+03
    -16.185  0.3607E+02  0.2038E+03
    -16.171  0.3662E+02  0.2043E+03
    -16.157  0.3717E+02  0.2048E+03
    -16.143  0.3770E+02  0.2053E+03
    -16.129  0.3820E+02  0.2058E+03
    -16.116  0.3866E+02  0.2064E+03
    -16.102  0.3908E+02  0.2069E+03
    -16.088  0.3943E+02  0.2075E+03
    -16.074  0.3971E+02  0.2080E+03
    -16.060  0.3992E+02  0.2086E+03
    -16.047  0.4003E+02  0.2091E+03
    -16.033  0.4006E+02  0.2097E+03
    -16.019  0.3999E+02  0.2102E+03
    -16.005  0.3984E+02  0.2108E+03
    -15.991  0.3959E+02  0.2113E+03
    -15.978  0.3925E+02  0.2119E+03
    -15.964  0.3884E+02  0.2124E+03
    -15.950  0.3836E+02  0.2129E+03
    -15.936  0.3782E+02  0.2134E+03
    -15.923  0.3724E+02  0.2140E+03
    -15.909  0.3662E+02  0.2145E+03
    -15.895  0.3599E+02  0.2150E+03
    -15.881  0.3535E+02  0.2154E+03
    -15.867  0.3473E+02  0.2159E+03
    -15.854  0.3414E+02  0.2164E+03
    -15.840  0.3359E+02  0.2169E+03
    -15.826  0.3308E+02  0.2173E+03
    -15.812  0.3265E+02  0.2178E+03
    -15.798  0.3228E+02  0.2182E+03
    -15.785  0.3199E+02  0.2186E+03
    -15.771  0.3179E+02  0.2191E+03
    -15.757  0.3168E+02  0.2195E+03
    -15.743  0.3165E+02  0.2200E+03
    -15.729  0.3171E+02  0.2204E+03
    -15.716  0.3185E+02  0.2208E+03
    -15.702  0.3206E+02  0.2213E+03
    -15.688  0.3235E+02  0.2217E+03
    -15.674  0.3271E+02  0.2222E+03
    -15.661  0.3312E+02  0.2226E+03
    -15.647  0.3357E+02  0.2231E+03
    -15.633  0.3407E+02  0.2236E+03
    -15.619  0.3459E+02  0.2240E+03
    -15.605  0.3513E+02  0.2245E+03
    -15.592  0.3567E+02  0.2250E+03
    -15.578  0.3623E+02  0.2255E+03
    -15.564  0.3677E+02  0.2260E+03
    -15.550  0.3731E+02  0.2265E+03
    -15.536  0.3783E+02  0.2271E+03
    -15.523  0.3832E+02  0.2276E+03
    -15.509  0.3879E+02  0.2281E+03
    -15.495  0.3923E+02  0.2287E+03
    -15.481  0.3964E+02  0.2292E+03
    -15.467  0.4001E+02  0.2298E+03
    -15.454  0.4035E+02  0.2303E+03
    -15.440  0.4064E+02  0.2309E+03
    -15.426  0.4089E+02  0.2314E+03
    -15.412  0.4110E+02  0.2320E+03
    -15.399  0.4127E+02  0.2326E+03
    -15.385  0.4138E+02  0.2332E+03
    -15.371  0.4145E+02  0.2337E+03
    -15.357  0.4147E+02  0.2343E+03
    -15.343  0.4144E+02  0.2349E+03
    -15.330  0.4136E+02  0.2354E+03
    -15.316  0.4124E+02  0.2360E+03
    -15.302  0.4106E+02  0.2366E+03
    -15.288  0.4085E+02  0.2371E+03
    -15.274  0.4059E+02  0.2377E+03
    -15.261  0.4029E+02  0.2383E+03
    -15.247  0.3996E+02  0.2388E+03
    -15.233  0.3959E+02  0.2393E+03
    -15.219  0.3920E+02  0.2399E+03
    -15.205  0.3878E+02  0.2404E+03
    -15.192  0.3834E+02  0.2410E+03
    -15.178  0.3788E+02  0.2415E+03
    -15.164  0.3741E+02  0.2420E+03
    -15.150  0.3693E+02  0.2425E+03
    -15.136  0.3645E+02  0.2430E+03
    -15.123  0.3596E+02  0.2435E+03
    -15.109  0.3548E+02  0.2440E+03
    -15.095  0.3500E+02  0.2445E+03
    -15.081  0.3454E+02  0.2449E+03
    -15.068  0.3409E+02  0.2454E+03
    -15.054  0.3365E+02  0.2459E+03
    -15.040  0.3324E+02  0.2463E+03
    -15.026  0.3285E+02  0.2468E+03
    -15.012  0.3249E+02  0.2472E+03
    -14.999  0.3216E+02  0.2477E+03
    -14.985  0.3185E+02  0.2481E+03
    -14.971  0.3158E+02  0.2486E+03
    -14.957  0.3134E+02  0.2490E+03
    -14.943  0.3113E+02  0.2494E+03
    -14.930  0.3095E+02  0.2498E+03
    -14.916  0.3079E+02  0.2503E+03
    -14.902  0.3067E+02  0.2507E+03
    -14.888  0.3056E+02  0.2511E+03
    -14.874  0.3048E+02  0.2515E+03
    -14.861  0.3042E+02  0.2520E+03
    -14.847  0.3038E+02  0.2524E+03
    -14.833  0.3036E+02  0.2528E+03
    -14.819  0.3035E+02  0.2532E+03
    -14.806  0.3036E+02  0.2536E+03
    -14.792  0.3038E+02  0.2541E+03
    -14.778  0.3042E+02  0.2545E+03
    -14.764  0.3047E+02  0.2549E+03
    -14.750  0.3054E+02  0.2553E+03
    -14.737  0.3062E+02  0.2557E+03
    -14.723  0.3072E+02  0.2562E+03
    -14.709  0.3083E+02  0.2566E+03
    -14.695  0.3096E+02  0.2570E+03
    -14.681  0.3110E+02  0.2574E+03
    -14.668  0.3126E+02  0.2579E+03
    -14.654  0.3143E+02  0.2583E+03
    -14.640  0.3161E+02  0.2587E+03
    -14.626  0.3180E+02  0.2592E+03
    -14.612  0.3199E+02  0.2596E+03
    -14.599  0.3220E+02  0.2601E+03
    -14.585  0.3241E+02  0.2605E+03
    -14.571  0.3262E+02  0.2610E+03
    -14.557  0.3283E+02  0.2614E+03
    -14.544  0.3305E+02  0.2619E+03
    -14.530  0.3326E+02  0.2623E+03
    -14.516  0.3347E+02  0.2628E+03
    -14.502  0.3368E+02  0.2633E+03
    -14.488  0.3389E+02  0.2637E+03
    -14.475  0.3409E+02  0.2642E+03
    -14.461  0.3429E+02  0.2647E+03
    -14.447  0.3448E+02  0.2651E+03
    -14.433  0.3468E+02  0.2656E+03
    -14.419  0.3487E+02  0.2661E+03
    -14.406  0.3506E+02  0.2666E+03
    -14.392  0.3525E+02  0.2671E+03
    -14.378  0.3544E+02  0.2676E+03
    -14.364  0.3564E+02  0.2680E+03
    -14.350  0.3583E+02  0.2685E+03
    -14.337  0.3602E+02  0.2690E+03
    -14.323  0.3621E+02  0.2695E+03
    -14.309  0.3640E+02  0.2700E+03
    -14.295  0.3659E+02  0.2705E+03
    -14.281  0.3678E+02  0.2711E+03
    -14.268  0.3697E+02  0.2716E+03
    -14.254  0.3714E+02  0.2721E+03
    -14.240  0.3731E+02  0.2726E+03
    -14.226  0.3747E+02  0.2731E+03
    -14.213  0.3762E+02  0.2736E+03
    -14.199  0.3775E+02  0.2741E+03
    -14.185  0.3787E+02  0.2747E+03
    -14.171  0.3797E+02  0.2752E+03
    -14.157  0.3805E+02  0.2757E+03
    -14.144  0.3812E+02  0.2762E+03
    -14.130  0.3816E+02  0.2768E+03
    -14.116  0.3819E+02  0.2773E+03
    -14.102  0.3820E+02  0.2778E+03
    -14.088  0.3819E+02  0.2783E+03
    -14.075  0.3817E+02  0.2789E+03
    -14.061  0.3814E+02  0.2794E+03
    -14.047  0.3810E+02  0.2799E+03
    -14.033  0.3805E+02  0.2804E+03
    -14.019  0.3800E+02  0.2810E+03
    -14.006  0.3795E+02  0.2815E+03
    -13.992  0.3790E+02  0.2820E+03
    -13.978  0.3786E+02  0.2825E+03
    -13.964  0.3783E+02  0.2831E+03
    -13.951  0.3781E+02  0.2836E+03
    -13.937  0.3781E+02  0.2841E+03
    -13.923  0.3782E+02  0.2846E+03
    -13.909  0.3785E+02  0.2851E+03
    -13.895  0.3790E+02  0.2857E+03
    -13.882  0.3796E+02  0.2862E+03
    -13.868  0.3804E+02  0.2867E+03
    -13.854  0.3812E+02  0.2872E+03
    -13.840  0.3822E+02  0.2878E+03
    -13.826  0.3832E+02  0.2883E+03
    -13.813  0.3842E+02  0.2888E+03
    -13.799  0.3852E+02  0.2894E+03
    -13.785  0.3860E+02  0.2899E+03
    -13.771  0.3867E+02  0.2904E+03
    -13.757  0.3871E+02  0.2910E+03
    -13.744  0.3874E+02  0.2915E+03
    -13.730  0.3873E+02  0.2920E+03
    -13.716  0.3869E+02  0.2926E+03
    -13.702  0.3861E+02  0.2931E+03
    -13.689  0.3851E+02  0.2936E+03
    -13.675  0.3836E+02  0.2942E+03
    -13.661  0.3819E+02  0.2947E+03
    -13.647  0.3799E+02  0.2952E+03
    -13.633  0.3776E+02  0.2957E+03
    -13.620  0.3751E+02  0.2962E+03
    -13.606  0.3725E+02  0.2968E+03
    -13.592  0.3698E+02  0.2973E+03
    -13.578  0.3671E+02  0.2978E+03
    -13.564  0.3644E+02  0.2983E+03
    -13.551  0.3618E+02  0.2988E+03
    -13.537  0.3595E+02  0.2993E+03
    -13.523  0.3573E+02  0.2998E+03
    -13.509  0.3554E+02  0.3003E+03
    -13.495  0.3538E+02  0.3007E+03
    -13.482  0.3524E+02  0.3012E+03
    -13.468  0.3514E+02  0.3017E+03
    -13.454  0.3505E+02  0.3022E+03
    -13.440  0.3500E+02  0.3027E+03
    -13.426  0.3496E+02  0.3032E+03
    -13.413  0.3493E+02  0.3036E+03
    -13.399  0.3491E+02  0.3041E+03
    -13.385  0.3490E+02  0.3046E+03
    -13.371  0.3488E+02  0.3051E+03