 196 196   0   0
  0.5630131E+02  0.2891723E-08  0.1908042E-08  0.2000000E-08  0.5000000E-15
  1.000000000000000E-004
  CAR 
 unknown system                          
      3.04830100    -24.31607494 2000     -4.04607276      1.00000000
    -24.316  0.0000E+00  0.0000E+00
    -24.302  0.0000E+00  0.0000E+00
    -24.289  0.0000E+00  0.0000E+00
    -24.275  0.0000E+00  0.0000E+00
    -24.261  0.0000E+00  0.0000E+00
    -24.248  0.0000E+00  0.0000E+00
    -24.234  0.0000E+00  0.0000E+00
    -24.220  0.0000E+00  0.0000E+00
    -24.207  0.0000E+00  0.0000E+00
    -24.193  0.0000E+00  0.0000E+00
    -24.179  0.0000E+00  0.0000E+00
    -24.165  0.0000E+00  0.0000E+00
    -24.152  0.0000E+00  0.0000E+00
    -24.138  0.0000E+00  0.0000E+00
    -24.124  0.0000E+00  0.0000E+00
    -24.111  0.0000E+00  0.0000E+00
    -24.097  0.0000E+00  0.0000E+00
    -24.083  0.0000E+00  0.0000E+00
    -24.070  0.0000E+00  0.0000E+00
    -24.056  0.0000E+00  0.0000E+00
    -24.042  0.0000E+00  0.0000E+00
    -24.029  0.0000E+00  0.0000E+00
    -24.015  0.0000E+00  0.0000E+00
    -24.001  0.0000E+00  0.0000E+00
    -23.988  0.0000E+00  0.0000E+00
    -23.974  0.0000E+00  0.0000E+00
    -23.960  0.0000E+00  0.0000E+00
    -23.946  0.0000E+00  0.0000E+00
    -23.933  0.0000E+00  0.0000E+00
    -23.919  0.0000E+00  0.0000E+00
    -23.905  0.0000E+00  0.0000E+00
    -23.892  0.0000E+00  0.0000E+00
    -23.878  0.0000E+00  0.0000E+00
    -23.864  0.0000E+00  0.0000E+00
    -23.851  0.0000E+00  0.0000E+00
    -23.837  0.0000E+00  0.0000E+00
    -23.823  0.0000E+00  0.0000E+00
    -23.810  0.0000E+00  0.0000E+00
    -23.796  0.0000E+00  0.0000E+00
    -23.782  0.0000E+00  0.0000E+00
    -23.769  0.0000E+00  0.0000E+00
    -23.755  0.0000E+00  0.0000E+00
    -23.741  0.0000E+00  0.0000E+00
    -23.727  0.0000E+00  0.0000E+00
    -23.714  0.0000E+00  0.0000E+00
    -23.700  0.0000E+00  0.0000E+00
    -23.686  0.0000E+00  0.0000E+00
    -23.673  0.0000E+00  0.0000E+00
    -23.659  0.0000E+00  0.0000E+00
    -23.645  0.0000E+00  0.0000E+00
    -23.632  0.0000E+00  0.0000E+00
    -23.618  0.0000E+00  0.0000E+00
    -23.604  0.0000E+00  0.0000E+00
    -23.591  0.0000E+00  0.0000E+00
    -23.577  0.0000E+00  0.0000E+00
    -23.563  0.0000E+00  0.0000E+00
    -23.549  0.0000E+00  0.0000E+00
    -23.536  0.0000E+00  0.0000E+00
    -23.522  0.0000E+00  0.0000E+00
    -23.508  0.0000E+00  0.0000E+00
    -23.495  0.8110E-14  0.1110E-15
    -23.481  0.2703E-14  0.1480E-15
    -23.467  0.1622E-13  0.3701E-15
    -23.454  0.2703E-13  0.7401E-15
    -23.440  0.6759E-13  0.1665E-14
    -23.426  0.1406E-12  0.3590E-14
    -23.413  0.3055E-12  0.7772E-14
    -23.399  0.6488E-12  0.1665E-13
    -23.385  0.1360E-11  0.3527E-13
    -23.372  0.2831E-11  0.7403E-13
    -23.358  0.5838E-11  0.1539E-12
    -23.344  0.1192E-10  0.3171E-12
    -23.330  0.2412E-10  0.6473E-12
    -23.317  0.4834E-10  0.1309E-11
    -23.303  0.9600E-10  0.2623E-11
    -23.289  0.1889E-09  0.5209E-11
    -23.276  0.3681E-09  0.1025E-10
    -23.262  0.7107E-09  0.1998E-10
    -23.248  0.1360E-08  0.3859E-10
    -23.235  0.2576E-08  0.7385E-10
    -23.221  0.4837E-08  0.1401E-09
    -23.207  0.8995E-08  0.2632E-09
    -23.194  0.1657E-07  0.4901E-09
    -23.180  0.3025E-07  0.9042E-09
    -23.166  0.5471E-07  0.1653E-08
    -23.153  0.9801E-07  0.2995E-08
    -23.139  0.1740E-06  0.5376E-08
    -23.125  0.3059E-06  0.9563E-08
    -23.111  0.5328E-06  0.1686E-07
    -23.098  0.9194E-06  0.2944E-07
    -23.084  0.1572E-05  0.5096E-07
    -23.070  0.2662E-05  0.8740E-07
    -23.057  0.4467E-05  0.1485E-06
    -23.043  0.7425E-05  0.2502E-06
    -23.029  0.1223E-04  0.4176E-06
    -23.016  0.1995E-04  0.6906E-06
    -23.002  0.3224E-04  0.1132E-05
    -22.988  0.5162E-04  0.1839E-05
    -22.975  0.8189E-04  0.2960E-05
    -22.961  0.1287E-03  0.4721E-05
    -22.947  0.2004E-03  0.7464E-05
    -22.933  0.3090E-03  0.1169E-04
    -22.920  0.4722E-03  0.1816E-04
    -22.906  0.7148E-03  0.2794E-04
    -22.892  0.1072E-02  0.4262E-04
    -22.879  0.1593E-02  0.6442E-04
    -22.865  0.2345E-02  0.9652E-04
    -22.851  0.3419E-02  0.1433E-03
    -22.838  0.4939E-02  0.2109E-03
    -22.824  0.7070E-02  0.3077E-03
    -22.810  0.1002E-01  0.4449E-03
    -22.797  0.1408E-01  0.6377E-03
    -22.783  0.1960E-01  0.9061E-03
    -22.769  0.2703E-01  0.1276E-02
    -22.756  0.3692E-01  0.1781E-02
    -22.742  0.4997E-01  0.2466E-02
    -22.728  0.6701E-01  0.3383E-02
    -22.714  0.8903E-01  0.4602E-02
    -22.701  0.1172E+00  0.6206E-02
    -22.687  0.1529E+00  0.8299E-02
    -22.673  0.1975E+00  0.1100E-01
    -22.660  0.2529E+00  0.1446E-01
    -22.646  0.3209E+00  0.1886E-01
    -22.632  0.4034E+00  0.2438E-01
    -22.619  0.5026E+00  0.3126E-01
    -22.605  0.6205E+00  0.3976E-01
    -22.591  0.7593E+00  0.5015E-01
    -22.578  0.9207E+00  0.6275E-01
    -22.564  0.1107E+01  0.7790E-01
    -22.550  0.1318E+01  0.9595E-01
    -22.537  0.1557E+01  0.1173E+00
    -22.523  0.1824E+01  0.1422E+00
    -22.509  0.2117E+01  0.1712E+00
    -22.495  0.2438E+01  0.2046E+00
    -22.482  0.2785E+01  0.2427E+00
    -22.468  0.3156E+01  0.2859E+00
    -22.454  0.3549E+01  0.3345E+00
    -22.441  0.3961E+01  0.3887E+00
    -22.427  0.4390E+01  0.4488E+00
    -22.413  0.4831E+01  0.5149E+00
    -22.400  0.5283E+01  0.5873E+00
    -22.386  0.5743E+01  0.6659E+00
    -22.372  0.6207E+01  0.7508E+00
    -22.359  0.6675E+01  0.8422E+00
    -22.345  0.7145E+01  0.9400E+00
    -22.331  0.7616E+01  0.1044E+01
    -22.317  0.8091E+01  0.1155E+01
    -22.304  0.8570E+01  0.1272E+01
    -22.290  0.9055E+01  0.1396E+01
    -22.276  0.9550E+01  0.1527E+01
    -22.263  0.1006E+02  0.1665E+01
    -22.249  0.1058E+02  0.1810E+01
    -22.235  0.1112E+02  0.1962E+01
    -22.222  0.1169E+02  0.2122E+01
    -22.208  0.1228E+02  0.2290E+01
    -22.194  0.1291E+02  0.2467E+01
    -22.181  0.1356E+02  0.2652E+01
    -22.167  0.1424E+02  0.2847E+01
    -22.153  0.1495E+02  0.3052E+01
    -22.140  0.1569E+02  0.3267E+01
    -22.126  0.1645E+02  0.3492E+01
    -22.112  0.1724E+02  0.3728E+01
    -22.098  0.1805E+02  0.3975E+01
    -22.085  0.1888E+02  0.4233E+01
    -22.071  0.1971E+02  0.4503E+01
    -22.057  0.2055E+02  0.4785E+01
    -22.044  0.2140E+02  0.5077E+01
    -22.030  0.2224E+02  0.5382E+01
    -22.016  0.2308E+02  0.5698E+01
    -22.003  0.2390E+02  0.6025E+01
    -21.989  0.2471E+02  0.6363E+01
    -21.975  0.2549E+02  0.6712E+01
    -21.962  0.2625E+02  0.7072E+01
    -21.948  0.2697E+02  0.7441E+01
    -21.934  0.2765E+02  0.7819E+01
    -21.920  0.2828E+02  0.8206E+01
    -21.907  0.2886E+02  0.8601E+01
    -21.893  0.2938E+02  0.9004E+01
    -21.879  0.2984E+02  0.9412E+01
    -21.866  0.3022E+02  0.9826E+01
    -21.852  0.3054E+02  0.1024E+02
    -21.838  0.3077E+02  0.1067E+02
    -21.825  0.3092E+02  0.1109E+02
    -21.811  0.3099E+02  0.1151E+02
    -21.797  0.3099E+02  0.1194E+02
    -21.784  0.3090E+02  0.1236E+02
    -21.770  0.3075E+02  0.1278E+02
    -21.756  0.3053E+02  0.1320E+02
    -21.743  0.3026E+02  0.1361E+02
    -21.729  0.2994E+02  0.1402E+02
    -21.715  0.2958E+02  0.1443E+02
    -21.701  0.2921E+02  0.1483E+02
    -21.688  0.2882E+02  0.1522E+02
    -21.674  0.2843E+02  0.1561E+02
    -21.660  0.2806E+02  0.1600E+02
    -21.647  0.2772E+02  0.1637E+02
    -21.633  0.2741E+02  0.1675E+02
    -21.619  0.2716E+02  0.1712E+02
    -21.606  0.2696E+02  0.1749E+02
    -21.592  0.2683E+02  0.1786E+02
    -21.578  0.2677E+02  0.1822E+02
    -21.565  0.2678E+02  0.1859E+02
    -21.551  0.2687E+02  0.1896E+02
    -21.537  0.2702E+02  0.1933E+02
    -21.524  0.2725E+02  0.1970E+02
    -21.510  0.2753E+02  0.2008E+02
    -21.496  0.2787E+02  0.2046E+02
    -21.482  0.2825E+02  0.2085E+02
    -21.469  0.2866E+02  0.2124E+02
    -21.455  0.2908E+02  0.2164E+02
    -21.441  0.2951E+02  0.2204E+02
    -21.428  0.2993E+02  0.2245E+02
    -21.414  0.3033E+02  0.2287E+02
    -21.400  0.3069E+02  0.2329E+02
    -21.387  0.3101E+02  0.2371E+02
    -21.373  0.3127E+02  0.2414E+02
    -21.359  0.3147E+02  0.2457E+02
    -21.346  0.3160E+02  0.2500E+02
    -21.332  0.3167E+02  0.2544E+02
    -21.318  0.3167E+02  0.2587E+02
    -21.304  0.3160E+02  0.2630E+02
    -21.291  0.3148E+02  0.2673E+02
    -21.277  0.3131E+02  0.2716E+02
    -21.263  0.3110E+02  0.2759E+02
    -21.250  0.3086E+02  0.2801E+02
    -21.236  0.3061E+02  0.2843E+02
    -21.222  0.3035E+02  0.2884E+02
    -21.209  0.3009E+02  0.2926E+02
    -21.195  0.2984E+02  0.2966E+02
    -21.181  0.2962E+02  0.3007E+02
    -21.168  0.2941E+02  0.3047E+02
    -21.154  0.2924E+02  0.3087E+02
    -21.140  0.2910E+02  0.3127E+02
    -21.127  0.2898E+02  0.3167E+02
    -21.113  0.2889E+02  0.3206E+02
    -21.099  0.2882E+02  0.3246E+02
    -21.085  0.2877E+02  0.3285E+02
    -21.072  0.2872E+02  0.3325E+02
    -21.058  0.2868E+02  0.3364E+02
    -21.044  0.2864E+02  0.3403E+02
    -21.031  0.2859E+02  0.3442E+02
    -21.017  0.2853E+02  0.3481E+02
    -21.003  0.2846E+02  0.3520E+02
    -20.990  0.2837E+02  0.3559E+02
    -20.976  0.2827E+02  0.3598E+02
    -20.962  0.2815E+02  0.3636E+02
    -20.949  0.2803E+02  0.3675E+02
    -20.935  0.2790E+02  0.3713E+02
    -20.921  0.2777E+02  0.3751E+02
    -20.908  0.2765E+02  0.3789E+02
    -20.894  0.2754E+02  0.3826E+02
    -20.880  0.2745E+02  0.3864E+02
    -20.866  0.2738E+02  0.3901E+02
    -20.853  0.2735E+02  0.3939E+02
    -20.839  0.2735E+02  0.3976E+02
    -20.825  0.2739E+02  0.4014E+02
    -20.812  0.2747E+02  0.4051E+02
    -20.798  0.2760E+02  0.4089E+02
    -20.784  0.2776E+02  0.4127E+02
    -20.771  0.2796E+02  0.4165E+02
    -20.757  0.2819E+02  0.4204E+02
    -20.743  0.2845E+02  0.4243E+02
    -20.730  0.2872E+02  0.4282E+02
    -20.716  0.2901E+02  0.4322E+02
    -20.702  0.2930E+02  0.4362E+02
    -20.688  0.2957E+02  0.4403E+02
    -20.675  0.2983E+02  0.4443E+02
    -20.661  0.3006E+02  0.4485E+02
    -20.647  0.3025E+02  0.4526E+02
    -20.634  0.3040E+02  0.4568E+02
    -20.620  0.3050E+02  0.4609E+02
    -20.606  0.3054E+02  0.4651E+02
    -20.593  0.3053E+02  0.4693E+02
    -20.579  0.3046E+02  0.4735E+02
    -20.565  0.3034E+02  0.4776E+02
    -20.552  0.3017E+02  0.4817E+02
    -20.538  0.2996E+02  0.4858E+02
    -20.524  0.2971E+02  0.4899E+02
    -20.511  0.2945E+02  0.4939E+02
    -20.497  0.2917E+02  0.4979E+02
    -20.483  0.2889E+02  0.5019E+02
    -20.469  0.2862E+02  0.5058E+02
    -20.456  0.2838E+02  0.5097E+02
    -20.442  0.2817E+02  0.5136E+02
    -20.428  0.2800E+02  0.5174E+02
    -20.415  0.2789E+02  0.5212E+02
    -20.401  0.2784E+02  0.5250E+02
    -20.387  0.2785E+02  0.5288E+02
    -20.374  0.2793E+02  0.5327E+02
    -20.360  0.2808E+02  0.5365E+02
    -20.346  0.2829E+02  0.5404E+02
    -20.333  0.2856E+02  0.5443E+02
    -20.319  0.2888E+02  0.5482E+02
    -20.305  0.2925E+02  0.5522E+02
    -20.291  0.2966E+02  0.5563E+02
    -20.278  0.3009E+02  0.5604E+02
    -20.264  0.3055E+02  0.5646E+02
    -20.250  0.3101E+02  0.5688E+02
    -20.237  0.3148E+02  0.5732E+02
    -20.223  0.3193E+02  0.5775E+02
    -20.209  0.3237E+02  0.5820E+02
    -20.196  0.3277E+02  0.5864E+02
    -20.182  0.3314E+02  0.5910E+02
    -20.168  0.3347E+02  0.5956E+02
    -20.155  0.3376E+02  0.6002E+02
    -20.141  0.3399E+02  0.6048E+02
    -20.127  0.3416E+02  0.6095E+02
    -20.114  0.3428E+02  0.6142E+02
    -20.100  0.3433E+02  0.6189E+02
    -20.086  0.3433E+02  0.6236E+02
    -20.072  0.3426E+02  0.6283E+02
    -20.059  0.3413E+02  0.6330E+02
    -20.045  0.3395E+02  0.6376E+02
    -20.031  0.3371E+02  0.6422E+02
    -20.018  0.3342E+02  0.6468E+02
    -20.004  0.3308E+02  0.6513E+02
    -19.990  0.3271E+02  0.6558E+02
    -19.977  0.3230E+02  0.6602E+02
    -19.963  0.3187E+02  0.6646E+02
    -19.949  0.3142E+02  0.6689E+02
    -19.936  0.3097E+02  0.6731E+02
    -19.922  0.3051E+02  0.6773E+02
    -19.908  0.3007E+02  0.6814E+02
    -19.895  0.2964E+02  0.6855E+02
    -19.881  0.2924E+02  0.6895E+02
    -19.867  0.2887E+02  0.6934E+02
    -19.853  0.2853E+02  0.6973E+02
    -19.840  0.2824E+02  0.7012E+02
    -19.826  0.2799E+02  0.7050E+02
    -19.812  0.2778E+02  0.7088E+02
    -19.799  0.2761E+02  0.7126E+02
    -19.785  0.2749E+02  0.7164E+02
    -19.771  0.2740E+02  0.7201E+02
    -19.758  0.2736E+02  0.7239E+02
    -19.744  0.2734E+02  0.7276E+02
    -19.730  0.2735E+02  0.7314E+02
    -19.717  0.2738E+02  0.7351E+02
    -19.703  0.2743E+02  0.7389E+02
    -19.689  0.2749E+02  0.7426E+02
    -19.675  0.2756E+02  0.7464E+02
    -19.662  0.2764E+02  0.7502E+02
    -19.648  0.2772E+02  0.7540E+02
    -19.634  0.2780E+02  0.7578E+02
    -19.621  0.2788E+02  0.7616E+02
    -19.607  0.2796E+02  0.7654E+02
    -19.593  0.2804E+02  0.7693E+02
    -19.580  0.2812E+02  0.7731E+02
    -19.566  0.2820E+02  0.7770E+02
    -19.552  0.2828E+02  0.7808E+02
    -19.539  0.2837E+02  0.7847E+02
    -19.525  0.2847E+02  0.7886E+02
    -19.511  0.2858E+02  0.7925E+02
    -19.498  0.2870E+02  0.7965E+02
    -19.484  0.2884E+02  0.8004E+02
    -19.470  0.2899E+02  0.8044E+02
    -19.456  0.2916E+02  0.8084E+02
    -19.443  0.2936E+02  0.8124E+02
    -19.429  0.2957E+02  0.8164E+02
    -19.415  0.2981E+02  0.8205E+02
    -19.402  0.3007E+02  0.8246E+02
    -19.388  0.3035E+02  0.8288E+02
    -19.374  0.3066E+02  0.8330E+02
    -19.361  0.3097E+02  0.8372E+02
    -19.347  0.3131E+02  0.8415E+02
    -19.333  0.3165E+02  0.8459E+02
    -19.320  0.3199E+02  0.8502E+02
    -19.306  0.3234E+02  0.8547E+02
    -19.292  0.3268E+02  0.8591E+02
    -19.279  0.3301E+02  0.8637E+02
    -19.265  0.3333E+02  0.8682E+02
    -19.251  0.3363E+02  0.8728E+02
    -19.237  0.3389E+02  0.8775E+02
    -19.224  0.3413E+02  0.8821E+02
    -19.210  0.3434E+02  0.8868E+02
    -19.196  0.3451E+02  0.8916E+02
    -19.183  0.3464E+02  0.8963E+02
    -19.169  0.3474E+02  0.9011E+02
    -19.155  0.3479E+02  0.9058E+02
    -19.142  0.3481E+02  0.9106E+02
    -19.128  0.3479E+02  0.9153E+02
    -19.114  0.3473E+02  0.9201E+02
    -19.101  0.3464E+02  0.9248E+02
    -19.087  0.3452E+02  0.9296E+02
    -19.073  0.3437E+02  0.9343E+02
    -19.059  0.3421E+02  0.9390E+02
    -19.046  0.3403E+02  0.9436E+02
    -19.032  0.3383E+02  0.9482E+02
    -19.018  0.3363E+02  0.9528E+02
    -19.005  0.3343E+02  0.9574E+02
    -18.991  0.3323E+02  0.9620E+02
    -18.977  0.3304E+02  0.9665E+02
    -18.964  0.3286E+02  0.9710E+02
    -18.950  0.3270E+02  0.9755E+02
    -18.936  0.3255E+02  0.9799E+02
    -18.923  0.3242E+02  0.9844E+02
    -18.909  0.3231E+02  0.9888E+02
    -18.895  0.3222E+02  0.9932E+02
    -18.882  0.3215E+02  0.9976E+02
    -18.868  0.3210E+02  0.1002E+03
    -18.854  0.3207E+02  0.1006E+03
    -18.840  0.3206E+02  0.1011E+03
    -18.827  0.3206E+02  0.1015E+03
    -18.813  0.3207E+02  0.1020E+03
    -18.799  0.3209E+02  0.1024E+03
    -18.786  0.3212E+02  0.1028E+03
    -18.772  0.3216E+02  0.1033E+03
    -18.758  0.3220E+02  0.1037E+03
    -18.745  0.3225E+02  0.1042E+03
    -18.731  0.3229E+02  0.1046E+03
    -18.717  0.3235E+02  0.1050E+03
    -18.704  0.3240E+02  0.1055E+03
    -18.690  0.3246E+02  0.1059E+03
    -18.676  0.3251E+02  0.1064E+03
    -18.663  0.3257E+02  0.1068E+03
    -18.649  0.3264E+02  0.1073E+03
    -18.635  0.3270E+02  0.1077E+03
    -18.621  0.3277E+02  0.1082E+03
    -18.608  0.3284E+02  0.1086E+03
    -18.594  0.3291E+02  0.1091E+03
    -18.580  0.3299E+02  0.1095E+03
    -18.567  0.3307E+02  0.1100E+03
    -18.553  0.3316E+02  0.1104E+03
    -18.539  0.3325E+02  0.1109E+03
    -18.526  0.3335E+02  0.1113E+03
    -18.512  0.3346E+02  0.1118E+03
    -18.498  0.3358E+02  0.1123E+03
    -18.485  0.3371E+02  0.1127E+03
    -18.471  0.3386E+02  0.1132E+03
    -18.457  0.3402E+02  0.1136E+03
    -18.443  0.3420E+02  0.1141E+03
    -18.430  0.3440E+02  0.1146E+03
    -18.416  0.3461E+02  0.1151E+03
    -18.402  0.3486E+02  0.1155E+03
    -18.389  0.3512E+02  0.1160E+03
    -18.375  0.3540E+02  0.1165E+03
    -18.361  0.3570E+02  0.1170E+03
    -18.348  0.3602E+02  0.1175E+03
    -18.334  0.3635E+02  0.1180E+03
    -18.320  0.3669E+02  0.1185E+03
    -18.307  0.3703E+02  0.1190E+03
    -18.293  0.3738E+02  0.1195E+03
    -18.279  0.3771E+02  0.1200E+03
    -18.266  0.3804E+02  0.1205E+03
    -18.252  0.3834E+02  0.1211E+03
    -18.238  0.3862E+02  0.1216E+03
    -18.224  0.3888E+02  0.1221E+03
    -18.211  0.3910E+02  0.1227E+03
    -18.197  0.3928E+02  0.1232E+03
    -18.183  0.3943E+02  0.1237E+03
    -18.170  0.3954E+02  0.1243E+03
    -18.156  0.3960E+02  0.1248E+03
    -18.142  0.3962E+02  0.1254E+03
    -18.129  0.3960E+02  0.1259E+03
    -18.115  0.3955E+02  0.1264E+03
    -18.101  0.3945E+02  0.1270E+03
    -18.088  0.3932E+02  0.1275E+03
    -18.074  0.3917E+02  0.1281E+03
    -18.060  0.3899E+02  0.1286E+03
    -18.046  0.3878E+02  0.1291E+03
    -18.033  0.3856E+02  0.1296E+03
    -18.019  0.3833E+02  0.1302E+03
    -18.005  0.3809E+02  0.1307E+03
    -17.992  0.3785E+02  0.1312E+03
    -17.978  0.3762E+02  0.1317E+03
    -17.964  0.3739E+02  0.1322E+03
    -17.951  0.3717E+02  0.1327E+03
    -17.937  0.3697E+02  0.1333E+03
    -17.923  0.3678E+02  0.1338E+03
    -17.910  0.3662E+02  0.1343E+03
    -17.896  0.3648E+02  0.1348E+03
    -17.882  0.3636E+02  0.1353E+03
    -17.869  0.3627E+02  0.1358E+03
    -17.855  0.3620E+02  0.1362E+03
    -17.841  0.3616E+02  0.1367E+03
    -17.827  0.3615E+02  0.1372E+03
    -17.814  0.3616E+02  0.1377E+03
    -17.800  0.3619E+02  0.1382E+03
    -17.786  0.3624E+02  0.1387E+03
    -17.773  0.3631E+02  0.1392E+03
    -17.759  0.3640E+02  0.1397E+03
    -17.745  0.3649E+02  0.1402E+03
    -17.732  0.3659E+02  0.1407E+03
    -17.718  0.3670E+02  0.1412E+03
    -17.704  0.3680E+02  0.1417E+03
    -17.691  0.3689E+02  0.1422E+03
    -17.677  0.3698E+02  0.1427E+03
    -17.663  0.3704E+02  0.1432E+03
    -17.650  0.3708E+02  0.1438E+03
    -17.636  0.3709E+02  0.1443E+03
    -17.622  0.3707E+02  0.1448E+03
    -17.608  0.3701E+02  0.1453E+03
    -17.595  0.3690E+02  0.1458E+03
    -17.581  0.3675E+02  0.1463E+03
    -17.567  0.3655E+02  0.1468E+03
    -17.554  0.3630E+02  0.1473E+03
    -17.540  0.3600E+02  0.1478E+03
    -17.526  0.3565E+02  0.1483E+03
    -17.513  0.3525E+02  0.1487E+03
    -17.499  0.3482E+02  0.1492E+03
    -17.485  0.3434E+02  0.1497E+03
    -17.472  0.3385E+02  0.1502E+03
    -17.458  0.3333E+02  0.1506E+03
    -17.444  0.3279E+02  0.1511E+03
    -17.430  0.3226E+02  0.1515E+03
    -17.417  0.3173E+02  0.1519E+03
    -17.403  0.3121E+02  0.1524E+03
    -17.389  0.3072E+02  0.1528E+03
    -17.376  0.3025E+02  0.1532E+03
    -17.362  0.2982E+02  0.1536E+03
    -17.348  0.2943E+02  0.1540E+03
    -17.335  0.2909E+02  0.1544E+03
    -17.321  0.2879E+02  0.1548E+03
    -17.307  0.2854E+02  0.1552E+03
    -17.294  0.2835E+02  0.1556E+03
    -17.280  0.2820E+02  0.1560E+03
    -17.266  0.2810E+02  0.1563E+03
    -17.253  0.2805E+02  0.1567E+03
    -17.239  0.2804E+02  0.1571E+03
    -17.225  0.2807E+02  0.1575E+03
    -17.211  0.2814E+02  0.1579E+03
    -17.198  0.2823E+02  0.1583E+03
    -17.184  0.2836E+02  0.1587E+03
    -17.170  0.2852E+02  0.1591E+03
    -17.157  0.2869E+02  0.1594E+03
    -17.143  0.2888E+02  0.1598E+03
    -17.129  0.2908E+02  0.1602E+03
    -17.116  0.2929E+02  0.1606E+03
    -17.102  0.2951E+02  0.1610E+03
    -17.088  0.2973E+02  0.1614E+03
    -17.075  0.2994E+02  0.1619E+03
    -17.061  0.3015E+02  0.1623E+03
    -17.047  0.3035E+02  0.1627E+03
    -17.034  0.3053E+02  0.1631E+03
    -17.020  0.3070E+02  0.1635E+03
    -17.006  0.3086E+02  0.1639E+03
    -16.992  0.3099E+02  0.1644E+03
    -16.979  0.3110E+02  0.1648E+03
    -16.965  0.3120E+02  0.1652E+03
    -16.951  0.3128E+02  0.1657E+03
    -16.938  0.3134E+02  0.1661E+03
    -16.924  0.3139E+02  0.1665E+03
    -16.910  0.3143E+02  0.1669E+03
    -16.897  0.3147E+02  0.1674E+03
    -16.883  0.3151E+02  0.1678E+03
    -16.869  0.3156E+02  0.1682E+03
    -16.856  0.3161E+02  0.1687E+03
    -16.842  0.3167E+02  0.1691E+03
    -16.828  0.3176E+02  0.1695E+03
    -16.814  0.3186E+02  0.1700E+03
    -16.801  0.3198E+02  0.1704E+03
    -16.787  0.3212E+02  0.1709E+03
    -16.773  0.3228E+02  0.1713E+03
    -16.760  0.3245E+02  0.1717E+03
    -16.746  0.3264E+02  0.1722E+03
    -16.732  0.3283E+02  0.1726E+03
    -16.719  0.3302E+02  0.1731E+03
    -16.705  0.3321E+02  0.1735E+03
    -16.691  0.3338E+02  0.1740E+03
    -16.678  0.3352E+02  0.1745E+03
    -16.664  0.3364E+02  0.1749E+03
    -16.650  0.3372E+02  0.1754E+03
    -16.637  0.3375E+02  0.1758E+03
    -16.623  0.3374E+02  0.1763E+03
    -16.609  0.3367E+02  0.1768E+03
    -16.595  0.3355E+02  0.1772E+03
    -16.582  0.3338E+02  0.1777E+03
    -16.568  0.3315E+02  0.1781E+03
    -16.554  0.3288E+02  0.1786E+03
    -16.541  0.3257E+02  0.1790E+03
    -16.527  0.3222E+02  0.1795E+03
    -16.513  0.3184E+02  0.1799E+03
    -16.500  0.3145E+02  0.1803E+03
    -16.486  0.3104E+02  0.1808E+03
    -16.472  0.3064E+02  0.1812E+03
    -16.459  0.3025E+02  0.1816E+03
    -16.445  0.2987E+02  0.1820E+03
    -16.431  0.2952E+02  0.1824E+03
    -16.418  0.2921E+02  0.1828E+03
    -16.404  0.2892E+02  0.1832E+03
    -16.390  0.2868E+02  0.1836E+03
    -16.376  0.2848E+02  0.1840E+03
    -16.363  0.2832E+02  0.1844E+03
    -16.349  0.2820E+02  0.1848E+03
    -16.335  0.2813E+02  0.1851E+03
    -16.322  0.2809E+02  0.1855E+03
    -16.308  0.2808E+02  0.1859E+03
    -16.294  0.2811E+02  0.1863E+03
    -16.281  0.2817E+02  0.1867E+03
    -16.267  0.2826E+02  0.1871E+03
    -16.253  0.2837E+02  0.1875E+03
    -16.240  0.2851E+02  0.1878E+03
    -16.226  0.2867E+02  0.1882E+03
    -16.212  0.2884E+02  0.1886E+03
    -16.198  0.2903E+02  0.1890E+03
    -16.185  0.2924E+02  0.1894E+03
    -16.171  0.2946E+02  0.1898E+03
    -16.157  0.2969E+02  0.1902E+03
    -16.144  0.2992E+02  0.1907E+03
    -16.130  0.3016E+02  0.1911E+03
    -16.116  0.3039E+02  0.1915E+03
    -16.103  0.3061E+02  0.1919E+03
    -16.089  0.3082E+02  0.1923E+03
    -16.075  0.3101E+02  0.1927E+03
    -16.062  0.3117E+02  0.1932E+03
    -16.048  0.3130E+02  0.1936E+03
    -16.034  0.3139E+02  0.1940E+03
    -16.021  0.3143E+02  0.1945E+03
    -16.007  0.3142E+02  0.1949E+03
    -15.993  0.3136E+02  0.1953E+03
    -15.979  0.3125E+02  0.1957E+03
    -15.966  0.3108E+02  0.1962E+03
    -15.952  0.3086E+02  0.1966E+03
    -15.938  0.3058E+02  0.1970E+03
    -15.925  0.3027E+02  0.1974E+03
    -15.911  0.2991E+02  0.1978E+03
    -15.897  0.2953E+02  0.1982E+03
    -15.884  0.2913E+02  0.1986E+03
    -15.870  0.2871E+02  0.1990E+03
    -15.856  0.2830E+02  0.1994E+03
    -15.843  0.2791E+02  0.1998E+03
    -15.829  0.2754E+02  0.2002E+03
    -15.815  0.2720E+02  0.2006E+03
    -15.801  0.2691E+02  0.2009E+03
    -15.788  0.2667E+02  0.2013E+03
    -15.774  0.2649E+02  0.2017E+03
    -15.760  0.2638E+02  0.2020E+03
    -15.747  0.2633E+02  0.2024E+03
    -15.733  0.2634E+02  0.2027E+03
    -15.719  0.2642E+02  0.2031E+03
    -15.706  0.2656E+02  0.2035E+03
    -15.692  0.2674E+02  0.2038E+03
    -15.678  0.2698E+02  0.2042E+03
    -15.665  0.2724E+02  0.2046E+03
    -15.651  0.2753E+02  0.2049E+03
    -15.637  0.2783E+02  0.2053E+03
    -15.624  0.2814E+02  0.2057E+03
    -15.610  0.2844E+02  0.2061E+03
    -15.596  0.2873E+02  0.2065E+03
    -15.582  0.2899E+02  0.2069E+03
    -15.569  0.2924E+02  0.2073E+03
    -15.555  0.2945E+02  0.2077E+03
    -15.541  0.2963E+02  0.2081E+03
    -15.528  0.2979E+02  0.2085E+03
    -15.514  0.2992E+02  0.2089E+03
    -15.500  0.3004E+02  0.2093E+03
    -15.487  0.3013E+02  0.2097E+03
    -15.473  0.3022E+02  0.2102E+03
    -15.459  0.3030E+02  0.2106E+03
    -15.446  0.3039E+02  0.2110E+03
    -15.432  0.3049E+02  0.2114E+03
    -15.418  0.3060E+02  0.2118E+03
    -15.405  0.3073E+02  0.2122E+03
    -15.391  0.3088E+02  0.2127E+03
    -15.377  0.3105E+02  0.2131E+03
    -15.363  0.3124E+02  0.2135E+03
    -15.350  0.3145E+02  0.2139E+03
    -15.336  0.3168E+02  0.2144E+03
    -15.322  0.3193E+02  0.2148E+03
    -15.309  0.3219E+02  0.2153E+03
    -15.295  0.3246E+02  0.2157E+03
    -15.281  0.3273E+02  0.2162E+03
    -15.268  0.3301E+02  0.2166E+03
    -15.254  0.3329E+02  0.2171E+03
    -15.240  0.3356E+02  0.2175E+03
    -15.227  0.3384E+02  0.2180E+03
    -15.213  0.3411E+02  0.2184E+03
    -15.199  0.3438E+02  0.2189E+03
    -15.185  0.3464E+02  0.2194E+03
    -15.172  0.3490E+02  0.2199E+03
    -15.158  0.3515E+02  0.2204E+03
    -15.144  0.3540E+02  0.2208E+03
    -15.131  0.3565E+02  0.2213E+03
    -15.117  0.3588E+02  0.2218E+03
    -15.103  0.3611E+02  0.2223E+03
    -15.090  0.3632E+02  0.2228E+03
    -15.076  0.3651E+02  0.2233E+03
    -15.062  0.3669E+02  0.2238E+03
    -15.049  0.3684E+02  0.2243E+03
    -15.035  0.3695E+02  0.2248E+03
    -15.021  0.3704E+02  0.2253E+03
    -15.008  0.3708E+02  0.2258E+03
    -14.994  0.3709E+02  0.2263E+03
    -14.980  0.3706E+02  0.2268E+03
    -14.966  0.3698E+02  0.2274E+03
    -14.953  0.3686E+02  0.2279E+03
    -14.939  0.3670E+02  0.2284E+03
    -14.925  0.3650E+02  0.2289E+03
    -14.912  0.3626E+02  0.2294E+03
    -14.898  0.3600E+02  0.2298E+03
    -14.884  0.3571E+02  0.2303E+03
    -14.871  0.3540E+02  0.2308E+03
    -14.857  0.3508E+02  0.2313E+03
    -14.843  0.3476E+02  0.2318E+03
    -14.830  0.3443E+02  0.2323E+03
    -14.816  0.3411E+02  0.2327E+03
    -14.802  0.3381E+02  0.2332E+03
    -14.789  0.3352E+02  0.2336E+03
    -14.775  0.3325E+02  0.2341E+03
    -14.761  0.3300E+02  0.2345E+03
    -14.747  0.3277E+02  0.2350E+03
    -14.734  0.3257E+02  0.2354E+03
    -14.720  0.3240E+02  0.2359E+03
    -14.706  0.3225E+02  0.2363E+03
    -14.693  0.3212E+02  0.2368E+03
    -14.679  0.3202E+02  0.2372E+03
    -14.665  0.3194E+02  0.2376E+03
    -14.652  0.3188E+02  0.2381E+03
    -14.638  0.3184E+02  0.2385E+03
    -14.624  0.3181E+02  0.2389E+03
    -14.611  0.3181E+02  0.2394E+03
    -14.597  0.3183E+02  0.2398E+03
    -14.583  0.3187E+02  0.2403E+03
    -14.569  0.3194E+02  0.2407E+03
    -14.556  0.3202E+02  0.2411E+03
    -14.542  0.3213E+02  0.2416E+03
    -14.528  0.3226E+02  0.2420E+03
    -14.515  0.3242E+02  0.2425E+03
    -14.501  0.3261E+02  0.2429E+03
    -14.487  0.3282E+02  0.2434E+03
    -14.474  0.3305E+02  0.2438E+03
    -14.460  0.3330E+02  0.2443E+03
    -14.446  0.3357E+02  0.2447E+03
    -14.433  0.3386E+02  0.2452E+03
    -14.419  0.3415E+02  0.2457E+03
    -14.405  0.3445E+02  0.2461E+03
    -14.392  0.3474E+02  0.2466E+03
    -14.378  0.3503E+02  0.2471E+03
    -14.364  0.3530E+02  0.2476E+03
    -14.350  0.3555E+02  0.2480E+03
    -14.337  0.3577E+02  0.2485E+03
    -14.323  0.3596E+02  0.2490E+03
    -14.309  0.3611E+02  0.2495E+03
    -14.296  0.3622E+02  0.2500E+03
    -14.282  0.3630E+02  0.2505E+03
    -14.268  0.3633E+02  0.2510E+03
    -14.255  0.3632E+02  0.2515E+03
    -14.241  0.3628E+02  0.2520E+03
    -14.227  0.3620E+02  0.2525E+03
    -14.214  0.3608E+02  0.2530E+03
    -14.200  0.3594E+02  0.2535E+03
    -14.186  0.3578E+02  0.2540E+03
    -14.173  0.3561E+02  0.2545E+03
    -14.159  0.3542E+02  0.2550E+03
    -14.145  0.3523E+02  0.2554E+03
    -14.131  0.3504E+02  0.2559E+03
    -14.118  0.3485E+02  0.2564E+03
    -14.104  0.3467E+02  0.2569E+03
    -14.090  0.3451E+02  0.2573E+03
    -14.077  0.3437E+02  0.2578E+03
    -14.063  0.3424E+02  0.2583E+03
    -14.049  0.3414E+02  0.2587E+03
    -14.036  0.3407E+02  0.2592E+03
    -14.022  0.3402E+02  0.2597E+03
    -14.008  0.3400E+02  0.2601E+03
    -13.995  0.3402E+02  0.2606E+03
    -13.981  0.3406E+02  0.2611E+03
    -13.967  0.3413E+02  0.2615E+03
    -13.953  0.3423E+02  0.2620E+03
    -13.940  0.3436E+02  0.2625E+03
    -13.926  0.3452E+02  0.2630E+03
    -13.912  0.3470E+02  0.2634E+03
    -13.899  0.3490E+02  0.2639E+03
    -13.885  0.3512E+02  0.2644E+03
    -13.871  0.3535E+02  0.2649E+03
    -13.858  0.3559E+02  0.2654E+03
    -13.844  0.3583E+02  0.2658E+03
    -13.830  0.3606E+02  0.2663E+03
    -13.817  0.3628E+02  0.2668E+03
    -13.803  0.3648E+02  0.2673E+03
    -13.789  0.3665E+02  0.2678E+03
    -13.776  0.3680E+02  0.2683E+03
    -13.762  0.3691E+02  0.2688E+03
    -13.748  0.3698E+02  0.2694E+03
    -13.734  0.3700E+02  0.2699E+03
    -13.721  0.3699E+02  0.2704E+03
    -13.707  0.3692E+02  0.2709E+03
    -13.693  0.3681E+02  0.2714E+03
    -13.680  0.3665E+02  0.2719E+03
    -13.666  0.3646E+02  0.2724E+03
    -13.652  0.3622E+02  0.2729E+03
    -13.639  0.3596E+02  0.2734E+03
    -13.625  0.3566E+02  0.2739E+03
    -13.611  0.3534E+02  0.2743E+03
    -13.598  0.3500E+02  0.2748E+03
    -13.584  0.3465E+02  0.2753E+03
    -13.570  0.3428E+02  0.2758E+03
    -13.556  0.3391E+02  0.2762E+03
    -13.543  0.3354E+02  0.2767E+03
    -13.529  0.3316E+02  0.2771E+03
    -13.515  0.3279E+02  0.2776E+03
    -13.502  0.3242E+02  0.2780E+03
    -13.488  0.3205E+02  0.2785E+03
    -13.474  0.3169E+02  0.2789E+03
    -13.461  0.3133E+02  0.2793E+03
    -13.447  0.3097E+02  0.2798E+03
    -13.433  0.3061E+02  0.2802E+03
    -13.420  0.3026E+02  0.2806E+03
    -13.406  0.2992E+02  0.2810E+03
    -13.392  0.2958E+02  0.2814E+03
    -13.379  0.2926E+02  0.2818E+03
    -13.365  0.2894E+02  0.2822E+03
    -13.351  0.2865E+02  0.2826E+03
    -13.337  0.2837E+02  0.2830E+03
    -13.324  0.2813E+02  0.2834E+03
    -13.310  0.2791E+02  0.2837E+03
    -13.296  0.2773E+02  0.2841E+03
    -13.283  0.2759E+02  0.2845E+03
    -13.269  0.2749E+02  0.2849E+03
    -13.255  0.2744E+02  0.2853E+03
    -13.242  0.2744E+02  0.2856E+03
    -13.228  0.2749E+02  0.2860E+03
    -13.214  0.2759E+02  0.2864E+03
    -13.201  0.2774E+02  0.2868E+03
    -13.187  0.2794E+02  0.2871E+03
    -13.173  0.2819E+02  0.2875E+03
    -13.160  0.2848E+02  0.2879E+03
    -13.146  0.2881E+02  0.2883E+03
    -13.132  0.2918E+02  0.2887E+03
    -13.118  0.2959E+02  0.2891E+03
    -13.105  0.3002E+02  0.2895E+03
    -13.091  0.3048E+02  0.2900E+03
    -13.077  0.3096E+02  0.2904E+03
    -13.064  0.3146E+02  0.2908E+03
    -13.050  0.3198E+02  0.2912E+03
    -13.036  0.3251E+02  0.2917E+03
    -13.023  0.3304E+02  0.2921E+03