 182 182   0   0
  0.2763302E+02  0.2556000E-08  0.1967610E-08  0.1000000E-08  0.5000000E-15
  1.000000000000000E-004
  CAR 
 unknown system                          
      4.89484150    -24.41572535 2000     -1.52888533      1.00000000
    -24.416  0.0000E+00  0.0000E+00
    -24.401  0.0000E+00  0.0000E+00
    -24.386  0.0000E+00  0.0000E+00
    -24.372  0.0000E+00  0.0000E+00
    -24.357  0.0000E+00  0.0000E+00
    -24.342  0.0000E+00  0.0000E+00
    -24.328  0.0000E+00  0.0000E+00
    -24.313  0.0000E+00  0.0000E+00
    -24.298  0.0000E+00  0.0000E+00
    -24.284  0.0000E+00  0.0000E+00
    -24.269  0.0000E+00  0.0000E+00
    -24.254  0.0000E+00  0.0000E+00
    -24.240  0.0000E+00  0.0000E+00
    -24.225  0.0000E+00  0.0000E+00
    -24.210  0.0000E+00  0.0000E+00
    -24.196  0.0000E+00  0.0000E+00
    -24.181  0.0000E+00  0.0000E+00
    -24.166  0.0000E+00  0.0000E+00
    -24.152  0.0000E+00  0.0000E+00
    -24.137  0.0000E+00  0.0000E+00
    -24.122  0.0000E+00  0.0000E+00
    -24.108  0.0000E+00  0.0000E+00
    -24.093  0.0000E+00  0.0000E+00
    -24.078  0.0000E+00  0.0000E+00
    -24.064  0.0000E+00  0.0000E+00
    -24.049  0.0000E+00  0.0000E+00
    -24.034  0.0000E+00  0.0000E+00
    -24.020  0.0000E+00  0.0000E+00
    -24.005  0.0000E+00  0.0000E+00
    -23.991  0.0000E+00  0.0000E+00
    -23.976  0.0000E+00  0.0000E+00
    -23.961  0.0000E+00  0.0000E+00
    -23.947  0.0000E+00  0.0000E+00
    -23.932  0.0000E+00  0.0000E+00
    -23.917  0.0000E+00  0.0000E+00
    -23.903  0.0000E+00  0.0000E+00
    -23.888  0.0000E+00  0.0000E+00
    -23.873  0.0000E+00  0.0000E+00
    -23.859  0.0000E+00  0.0000E+00
    -23.844  0.0000E+00  0.0000E+00
    -23.829  0.0000E+00  0.0000E+00
    -23.815  0.0000E+00  0.0000E+00
    -23.800  0.0000E+00  0.0000E+00
    -23.785  0.0000E+00  0.0000E+00
    -23.771  0.0000E+00  0.0000E+00
    -23.756  0.0000E+00  0.0000E+00
    -23.741  0.0000E+00  0.0000E+00
    -23.727  0.0000E+00  0.0000E+00
    -23.712  0.0000E+00  0.0000E+00
    -23.697  0.0000E+00  0.0000E+00
    -23.683  0.0000E+00  0.0000E+00
    -23.668  0.0000E+00  0.0000E+00
    -23.653  0.0000E+00  0.0000E+00
    -23.639  0.0000E+00  0.0000E+00
    -23.624  0.0000E+00  0.0000E+00
    -23.609  0.0000E+00  0.0000E+00
    -23.595  0.7572E-14  0.1110E-15
    -23.580  0.7572E-14  0.2220E-15
    -23.565  0.1514E-13  0.4441E-15
    -23.551  0.3786E-13  0.9992E-15
    -23.536  0.9086E-13  0.2331E-14
    -23.521  0.2044E-12  0.5329E-14
    -23.507  0.4770E-12  0.1232E-13
    -23.492  0.1037E-11  0.2753E-13
    -23.477  0.2289E-11  0.6110E-13
    -23.463  0.4990E-11  0.1343E-12
    -23.448  0.1076E-10  0.2920E-12
    -23.433  0.2291E-10  0.6279E-12
    -23.419  0.4831E-10  0.1336E-11
    -23.404  0.1008E-09  0.2814E-11
    -23.389  0.2080E-09  0.5864E-11
    -23.375  0.4248E-09  0.1209E-10
    -23.360  0.8582E-09  0.2468E-10
    -23.345  0.1715E-08  0.4983E-10
    -23.331  0.3392E-08  0.9957E-10
    -23.316  0.6638E-08  0.1969E-09
    -23.301  0.1285E-07  0.3853E-09
    -23.287  0.2461E-07  0.7461E-09
    -23.272  0.4663E-07  0.1430E-08
    -23.257  0.8743E-07  0.2712E-08
    -23.243  0.1622E-06  0.5090E-08
    -23.228  0.2977E-06  0.9454E-08
    -23.213  0.5405E-06  0.1738E-07
    -23.199  0.9711E-06  0.3162E-07
    -23.184  0.1726E-05  0.5693E-07
    -23.169  0.3036E-05  0.1015E-06
    -23.155  0.5284E-05  0.1789E-06
    -23.140  0.9099E-05  0.3123E-06
    -23.125  0.1550E-04  0.5396E-06
    -23.111  0.2613E-04  0.9228E-06
    -23.096  0.4359E-04  0.1562E-05
    -23.081  0.7194E-04  0.2617E-05
    -23.067  0.1175E-03  0.4340E-05
    -23.052  0.1899E-03  0.7123E-05
    -23.037  0.3036E-03  0.1157E-04
    -23.023  0.4803E-03  0.1862E-04
    -23.008  0.7520E-03  0.2964E-04
    -22.993  0.1165E-02  0.4673E-04
    -22.979  0.1786E-02  0.7291E-04
    -22.964  0.2710E-02  0.1126E-03
    -22.949  0.4068E-02  0.1723E-03
    -22.935  0.6043E-02  0.2609E-03
    -22.920  0.8884E-02  0.3912E-03
    -22.905  0.1293E-01  0.5807E-03
    -22.891  0.1861E-01  0.8536E-03
    -22.876  0.2652E-01  0.1242E-02
    -22.861  0.3740E-01  0.1791E-02
    -22.847  0.5220E-01  0.2556E-02
    -22.832  0.7210E-01  0.3613E-02
    -22.818  0.9857E-01  0.5059E-02
    -22.803  0.1334E+00  0.7015E-02
    -22.788  0.1786E+00  0.9634E-02
    -22.774  0.2368E+00  0.1311E-01
    -22.759  0.3107E+00  0.1766E-01
    -22.744  0.4035E+00  0.2358E-01
    -22.730  0.5188E+00  0.3118E-01
    -22.715  0.6602E+00  0.4086E-01
    -22.700  0.8316E+00  0.5306E-01
    -22.686  0.1037E+01  0.6826E-01
    -22.671  0.1280E+01  0.8704E-01
    -22.656  0.1565E+01  0.1100E+00
    -22.642  0.1893E+01  0.1377E+00
    -22.627  0.2268E+01  0.1710E+00
    -22.612  0.2689E+01  0.2104E+00
    -22.598  0.3157E+01  0.2567E+00
    -22.583  0.3670E+01  0.3105E+00
    -22.568  0.4225E+01  0.3725E+00
    -22.554  0.4815E+01  0.4431E+00
    -22.539  0.5433E+01  0.5227E+00
    -22.524  0.6070E+01  0.6117E+00
    -22.510  0.6716E+01  0.7102E+00
    -22.495  0.7358E+01  0.8181E+00
    -22.480  0.7983E+01  0.9352E+00
    -22.466  0.8576E+01  0.1061E+01
    -22.451  0.9124E+01  0.1195E+01
    -22.436  0.9612E+01  0.1336E+01
    -22.422  0.1003E+02  0.1483E+01
    -22.407  0.1036E+02  0.1635E+01
    -22.392  0.1060E+02  0.1790E+01
    -22.378  0.1075E+02  0.1948E+01
    -22.363  0.1079E+02  0.2106E+01
    -22.348  0.1073E+02  0.2263E+01
    -22.334  0.1057E+02  0.2418E+01
    -22.319  0.1031E+02  0.2569E+01
    -22.304  0.9970E+01  0.2715E+01
    -22.290  0.9556E+01  0.2856E+01
    -22.275  0.9082E+01  0.2989E+01
    -22.260  0.8562E+01  0.3114E+01
    -22.246  0.8012E+01  0.3232E+01
    -22.231  0.7450E+01  0.3341E+01
    -22.216  0.6891E+01  0.3442E+01
    -22.202  0.6352E+01  0.3535E+01
    -22.187  0.5846E+01  0.3621E+01
    -22.172  0.5387E+01  0.3700E+01
    -22.158  0.4987E+01  0.3773E+01
    -22.143  0.4654E+01  0.3841E+01
    -22.128  0.4396E+01  0.3906E+01
    -22.114  0.4216E+01  0.3967E+01
    -22.099  0.4117E+01  0.4028E+01
    -22.084  0.4099E+01  0.4088E+01
    -22.070  0.4159E+01  0.4149E+01
    -22.055  0.4293E+01  0.4212E+01
    -22.040  0.4496E+01  0.4278E+01
    -22.026  0.4758E+01  0.4348E+01
    -22.011  0.5072E+01  0.4422E+01
    -21.996  0.5428E+01  0.4502E+01
    -21.982  0.5815E+01  0.4587E+01
    -21.967  0.6223E+01  0.4678E+01
    -21.952  0.6639E+01  0.4775E+01
    -21.938  0.7055E+01  0.4879E+01
    -21.923  0.7459E+01  0.4988E+01
    -21.908  0.7843E+01  0.5103E+01
    -21.894  0.8196E+01  0.5223E+01
    -21.879  0.8513E+01  0.5348E+01
    -21.864  0.8786E+01  0.5477E+01
    -21.850  0.9009E+01  0.5609E+01
    -21.835  0.9179E+01  0.5744E+01
    -21.820  0.9291E+01  0.5880E+01
    -21.806  0.9345E+01  0.6017E+01
    -21.791  0.9340E+01  0.6154E+01
    -21.776  0.9274E+01  0.6290E+01
    -21.762  0.9152E+01  0.6424E+01
    -21.747  0.8974E+01  0.6556E+01
    -21.732  0.8744E+01  0.6684E+01
    -21.718  0.8470E+01  0.6808E+01
    -21.703  0.8155E+01  0.6928E+01
    -21.688  0.7810E+01  0.7042E+01
    -21.674  0.7441E+01  0.7151E+01
    -21.659  0.7061E+01  0.7255E+01
    -21.644  0.6680E+01  0.7353E+01
    -21.630  0.6310E+01  0.7445E+01
    -21.615  0.5965E+01  0.7533E+01
    -21.601  0.5657E+01  0.7616E+01
    -21.586  0.5400E+01  0.7695E+01
    -21.571  0.5207E+01  0.7771E+01
    -21.557  0.5091E+01  0.7846E+01
    -21.542  0.5063E+01  0.7920E+01
    -21.527  0.5133E+01  0.7995E+01
    -21.513  0.5311E+01  0.8073E+01
    -21.498  0.5601E+01  0.8155E+01
    -21.483  0.6008E+01  0.8243E+01
    -21.469  0.6533E+01  0.8339E+01
    -21.454  0.7173E+01  0.8444E+01
    -21.439  0.7923E+01  0.8561E+01
    -21.425  0.8775E+01  0.8689E+01
    -21.410  0.9717E+01  0.8832E+01
    -21.395  0.1073E+02  0.8989E+01
    -21.381  0.1181E+02  0.9162E+01
    -21.366  0.1292E+02  0.9352E+01
    -21.351  0.1405E+02  0.9558E+01
    -21.337  0.1518E+02  0.9780E+01
    -21.322  0.1628E+02  0.1002E+02
    -21.307  0.1734E+02  0.1027E+02
    -21.293  0.1834E+02  0.1054E+02
    -21.278  0.1925E+02  0.1082E+02
    -21.263  0.2008E+02  0.1112E+02
    -21.249  0.2080E+02  0.1142E+02
    -21.234  0.2141E+02  0.1174E+02
    -21.219  0.2191E+02  0.1206E+02
    -21.205  0.2230E+02  0.1239E+02
    -21.190  0.2259E+02  0.1272E+02
    -21.175  0.2278E+02  0.1305E+02
    -21.161  0.2289E+02  0.1339E+02
    -21.146  0.2292E+02  0.1372E+02
    -21.131  0.2289E+02  0.1406E+02
    -21.117  0.2281E+02  0.1439E+02
    -21.102  0.2270E+02  0.1473E+02
    -21.087  0.2257E+02  0.1506E+02
    -21.073  0.2242E+02  0.1539E+02
    -21.058  0.2228E+02  0.1571E+02
    -21.043  0.2213E+02  0.1604E+02
    -21.029  0.2200E+02  0.1636E+02
    -21.014  0.2189E+02  0.1668E+02
    -20.999  0.2179E+02  0.1700E+02
    -20.985  0.2171E+02  0.1732E+02
    -20.970  0.2166E+02  0.1764E+02
    -20.955  0.2163E+02  0.1795E+02
    -20.941  0.2162E+02  0.1827E+02
    -20.926  0.2163E+02  0.1859E+02
    -20.911  0.2167E+02  0.1890E+02
    -20.897  0.2173E+02  0.1922E+02
    -20.882  0.2181E+02  0.1954E+02
    -20.867  0.2191E+02  0.1986E+02
    -20.853  0.2204E+02  0.2019E+02
    -20.838  0.2219E+02  0.2051E+02
    -20.823  0.2237E+02  0.2084E+02
    -20.809  0.2256E+02  0.2117E+02
    -20.794  0.2279E+02  0.2151E+02
    -20.779  0.2303E+02  0.2184E+02
    -20.765  0.2330E+02  0.2219E+02
    -20.750  0.2359E+02  0.2253E+02
    -20.735  0.2390E+02  0.2288E+02
    -20.721  0.2423E+02  0.2324E+02
    -20.706  0.2457E+02  0.2360E+02
    -20.691  0.2492E+02  0.2396E+02
    -20.677  0.2527E+02  0.2433E+02
    -20.662  0.2561E+02  0.2471E+02
    -20.647  0.2595E+02  0.2509E+02
    -20.633  0.2628E+02  0.2547E+02
    -20.618  0.2659E+02  0.2586E+02
    -20.603  0.2688E+02  0.2626E+02
    -20.589  0.2714E+02  0.2666E+02
    -20.574  0.2736E+02  0.2706E+02
    -20.559  0.2755E+02  0.2746E+02
    -20.545  0.2771E+02  0.2787E+02
    -20.530  0.2783E+02  0.2828E+02
    -20.515  0.2791E+02  0.2869E+02
    -20.501  0.2796E+02  0.2910E+02
    -20.486  0.2798E+02  0.2951E+02
    -20.471  0.2796E+02  0.2992E+02
    -20.457  0.2793E+02  0.3032E+02
    -20.442  0.2787E+02  0.3073E+02
    -20.427  0.2780E+02  0.3114E+02
    -20.413  0.2772E+02  0.3155E+02
    -20.398  0.2763E+02  0.3195E+02
    -20.384  0.2753E+02  0.3236E+02
    -20.369  0.2744E+02  0.3276E+02
    -20.354  0.2734E+02  0.3316E+02
    -20.340  0.2725E+02  0.3356E+02
    -20.325  0.2716E+02  0.3396E+02
    -20.310  0.2707E+02  0.3435E+02
    -20.296  0.2698E+02  0.3475E+02
    -20.281  0.2689E+02  0.3514E+02
    -20.266  0.2680E+02  0.3554E+02
    -20.252  0.2671E+02  0.3593E+02
    -20.237  0.2662E+02  0.3632E+02
    -20.222  0.2652E+02  0.3671E+02
    -20.208  0.2642E+02  0.3710E+02
    -20.193  0.2633E+02  0.3748E+02
    -20.178  0.2624E+02  0.3787E+02
    -20.164  0.2615E+02  0.3825E+02
    -20.149  0.2608E+02  0.3863E+02
    -20.134  0.2603E+02  0.3901E+02
    -20.120  0.2599E+02  0.3939E+02
    -20.105  0.2598E+02  0.3978E+02
    -20.090  0.2600E+02  0.4016E+02
    -20.076  0.2605E+02  0.4054E+02
    -20.061  0.2613E+02  0.4092E+02
    -20.046  0.2623E+02  0.4131E+02
    -20.032  0.2637E+02  0.4169E+02
    -20.017  0.2652E+02  0.4208E+02
    -20.002  0.2668E+02  0.4247E+02
    -19.988  0.2686E+02  0.4287E+02
    -19.973  0.2703E+02  0.4326E+02
    -19.958  0.2719E+02  0.4366E+02
    -19.944  0.2733E+02  0.4406E+02
    -19.929  0.2744E+02  0.4446E+02
    -19.914  0.2752E+02  0.4487E+02
    -19.900  0.2756E+02  0.4527E+02
    -19.885  0.2755E+02  0.4568E+02
    -19.870  0.2750E+02  0.4608E+02
    -19.856  0.2739E+02  0.4648E+02
    -19.841  0.2725E+02  0.4688E+02
    -19.826  0.2706E+02  0.4728E+02
    -19.812  0.2684E+02  0.4767E+02
    -19.797  0.2658E+02  0.4806E+02
    -19.782  0.2631E+02  0.4845E+02
    -19.768  0.2604E+02  0.4883E+02
    -19.753  0.2576E+02  0.4921E+02
    -19.738  0.2549E+02  0.4958E+02
    -19.724  0.2525E+02  0.4995E+02
    -19.709  0.2503E+02  0.5032E+02
    -19.694  0.2485E+02  0.5068E+02
    -19.680  0.2472E+02  0.5104E+02
    -19.665  0.2462E+02  0.5140E+02
    -19.650  0.2458E+02  0.5177E+02
    -19.636  0.2458E+02  0.5213E+02
    -19.621  0.2463E+02  0.5249E+02
    -19.606  0.2471E+02  0.5285E+02
    -19.592  0.2484E+02  0.5321E+02
    -19.577  0.2499E+02  0.5358E+02
    -19.562  0.2516E+02  0.5395E+02
    -19.548  0.2535E+02  0.5432E+02
    -19.533  0.2554E+02  0.5469E+02
    -19.518  0.2573E+02  0.5507E+02
    -19.504  0.2592E+02  0.5545E+02
    -19.489  0.2609E+02  0.5583E+02
    -19.474  0.2625E+02  0.5622E+02
    -19.460  0.2640E+02  0.5661E+02
    -19.445  0.2653E+02  0.5700E+02
    -19.430  0.2664E+02  0.5739E+02
    -19.416  0.2673E+02  0.5778E+02
    -19.401  0.2681E+02  0.5817E+02
    -19.386  0.2689E+02  0.5857E+02
    -19.372  0.2696E+02  0.5896E+02
    -19.357  0.2703E+02  0.5936E+02
    -19.342  0.2710E+02  0.5975E+02
    -19.328  0.2718E+02  0.6015E+02
    -19.313  0.2727E+02  0.6055E+02
    -19.298  0.2737E+02  0.6095E+02
    -19.284  0.2748E+02  0.6136E+02
    -19.269  0.2761E+02  0.6176E+02
    -19.254  0.2775E+02  0.6217E+02
    -19.240  0.2790E+02  0.6258E+02
    -19.225  0.2805E+02  0.6299E+02
    -19.210  0.2821E+02  0.6340E+02
    -19.196  0.2837E+02  0.6382E+02
    -19.181  0.2852E+02  0.6424E+02
    -19.167  0.2866E+02  0.6466E+02
    -19.152  0.2879E+02  0.6508E+02
    -19.137  0.2889E+02  0.6550E+02
    -19.123  0.2897E+02  0.6593E+02
    -19.108  0.2902E+02  0.6635E+02
    -19.093  0.2903E+02  0.6678E+02
    -19.079  0.2900E+02  0.6720E+02
    -19.064  0.2893E+02  0.6763E+02
    -19.049  0.2882E+02  0.6805E+02
    -19.035  0.2867E+02  0.6847E+02
    -19.020  0.2847E+02  0.6889E+02
    -19.005  0.2823E+02  0.6930E+02
    -18.991  0.2796E+02  0.6971E+02
    -18.976  0.2766E+02  0.7012E+02
    -18.961  0.2733E+02  0.7052E+02
    -18.947  0.2699E+02  0.7091E+02
    -18.932  0.2664E+02  0.7131E+02
    -18.917  0.2629E+02  0.7169E+02
    -18.903  0.2594E+02  0.7207E+02
    -18.888  0.2562E+02  0.7245E+02
    -18.873  0.2531E+02  0.7282E+02
    -18.859  0.2504E+02  0.7319E+02
    -18.844  0.2480E+02  0.7355E+02
    -18.829  0.2461E+02  0.7391E+02
    -18.815  0.2446E+02  0.7427E+02
    -18.800  0.2435E+02  0.7463E+02
    -18.785  0.2428E+02  0.7498E+02
    -18.771  0.2426E+02  0.7534E+02
    -18.756  0.2427E+02  0.7569E+02
    -18.741  0.2432E+02  0.7605E+02
    -18.727  0.2440E+02  0.7641E+02
    -18.712  0.2451E+02  0.7677E+02
    -18.697  0.2463E+02  0.7713E+02
    -18.683  0.2477E+02  0.7749E+02
    -18.668  0.2492E+02  0.7786E+02
    -18.653  0.2507E+02  0.7822E+02
    -18.639  0.2522E+02  0.7859E+02
    -18.624  0.2537E+02  0.7897E+02
    -18.609  0.2551E+02  0.7934E+02
    -18.595  0.2565E+02  0.7972E+02
    -18.580  0.2577E+02  0.8009E+02
    -18.565  0.2589E+02  0.8047E+02
    -18.551  0.2600E+02  0.8085E+02
    -18.536  0.2609E+02  0.8124E+02
    -18.521  0.2618E+02  0.8162E+02
    -18.507  0.2626E+02  0.8201E+02
    -18.492  0.2632E+02  0.8239E+02
    -18.477  0.2639E+02  0.8278E+02
    -18.463  0.2644E+02  0.8317E+02
    -18.448  0.2649E+02  0.8356E+02
    -18.433  0.2654E+02  0.8394E+02
    -18.419  0.2660E+02  0.8433E+02
    -18.404  0.2665E+02  0.8473E+02
    -18.389  0.2671E+02  0.8512E+02
    -18.375  0.2678E+02  0.8551E+02
    -18.360  0.2686E+02  0.8590E+02
    -18.345  0.2695E+02  0.8630E+02
    -18.331  0.2706E+02  0.8670E+02
    -18.316  0.2718E+02  0.8709E+02
    -18.301  0.2731E+02  0.8749E+02
    -18.287  0.2746E+02  0.8790E+02
    -18.272  0.2762E+02  0.8830E+02
    -18.257  0.2778E+02  0.8871E+02
    -18.243  0.2795E+02  0.8912E+02
    -18.228  0.2812E+02  0.8953E+02
    -18.213  0.2829E+02  0.8995E+02
    -18.199  0.2845E+02  0.9036E+02
    -18.184  0.2859E+02  0.9078E+02
    -18.169  0.2871E+02  0.9120E+02
    -18.155  0.2880E+02  0.9163E+02
    -18.140  0.2887E+02  0.9205E+02
    -18.125  0.2891E+02  0.9247E+02
    -18.111  0.2891E+02  0.9290E+02
    -18.096  0.2888E+02  0.9332E+02
    -18.081  0.2882E+02  0.9374E+02
    -18.067  0.2872E+02  0.9416E+02
    -18.052  0.2859E+02  0.9458E+02
    -18.037  0.2844E+02  0.9500E+02
    -18.023  0.2827E+02  0.9541E+02
    -18.008  0.2808E+02  0.9583E+02
    -17.994  0.2788E+02  0.9624E+02
    -17.979  0.2767E+02  0.9664E+02
    -17.964  0.2747E+02  0.9704E+02
    -17.950  0.2727E+02  0.9744E+02
    -17.935  0.2708E+02  0.9784E+02
    -17.920  0.2691E+02  0.9824E+02
    -17.906  0.2676E+02  0.9863E+02
    -17.891  0.2663E+02  0.9902E+02
    -17.876  0.2653E+02  0.9941E+02
    -17.862  0.2645E+02  0.9979E+02
    -17.847  0.2641E+02  0.1002E+03
    -17.832  0.2639E+02  0.1006E+03
    -17.818  0.2639E+02  0.1010E+03
    -17.803  0.2642E+02  0.1013E+03
    -17.788  0.2648E+02  0.1017E+03
    -17.774  0.2656E+02  0.1021E+03
    -17.759  0.2665E+02  0.1025E+03
    -17.744  0.2677E+02  0.1029E+03
    -17.730  0.2690E+02  0.1033E+03
    -17.715  0.2704E+02  0.1037E+03
    -17.700  0.2719E+02  0.1041E+03
    -17.686  0.2734E+02  0.1045E+03
    -17.671  0.2750E+02  0.1049E+03
    -17.656  0.2766E+02  0.1053E+03
    -17.642  0.2782E+02  0.1057E+03
    -17.627  0.2798E+02  0.1061E+03
    -17.612  0.2813E+02  0.1065E+03
    -17.598  0.2827E+02  0.1069E+03
    -17.583  0.2840E+02  0.1074E+03
    -17.568  0.2852E+02  0.1078E+03
    -17.554  0.2863E+02  0.1082E+03
    -17.539  0.2872E+02  0.1086E+03
    -17.524  0.2879E+02  0.1090E+03
    -17.510  0.2885E+02  0.1095E+03
    -17.495  0.2889E+02  0.1099E+03
    -17.480  0.2890E+02  0.1103E+03
    -17.466  0.2890E+02  0.1107E+03
    -17.451  0.2888E+02  0.1112E+03
    -17.436  0.2884E+02  0.1116E+03
    -17.422  0.2879E+02  0.1120E+03
    -17.407  0.2872E+02  0.1124E+03
    -17.392  0.2863E+02  0.1128E+03
    -17.378  0.2854E+02  0.1133E+03
    -17.363  0.2844E+02  0.1137E+03
    -17.348  0.2833E+02  0.1141E+03
    -17.334  0.2822E+02  0.1145E+03
    -17.319  0.2811E+02  0.1149E+03
    -17.304  0.2800E+02  0.1153E+03
    -17.290  0.2789E+02  0.1157E+03
    -17.275  0.2779E+02  0.1162E+03
    -17.260  0.2769E+02  0.1166E+03
    -17.246  0.2761E+02  0.1170E+03
    -17.231  0.2755E+02  0.1174E+03
    -17.216  0.2750E+02  0.1178E+03
    -17.202  0.2747E+02  0.1182E+03
    -17.187  0.2746E+02  0.1186E+03
    -17.172  0.2747E+02  0.1190E+03
    -17.158  0.2751E+02  0.1194E+03
    -17.143  0.2757E+02  0.1198E+03
    -17.128  0.2766E+02  0.1202E+03
    -17.114  0.2777E+02  0.1206E+03
    -17.099  0.2790E+02  0.1210E+03
    -17.084  0.2805E+02  0.1214E+03
    -17.070  0.2821E+02  0.1218E+03
    -17.055  0.2839E+02  0.1222E+03
    -17.040  0.2857E+02  0.1227E+03
    -17.026  0.2875E+02  0.1231E+03
    -17.011  0.2892E+02  0.1235E+03
    -16.996  0.2908E+02  0.1239E+03
    -16.982  0.2923E+02  0.1244E+03
    -16.967  0.2936E+02  0.1248E+03
    -16.952  0.2947E+02  0.1252E+03
    -16.938  0.2955E+02  0.1257E+03
    -16.923  0.2960E+02  0.1261E+03
    -16.908  0.2962E+02  0.1265E+03
    -16.894  0.2962E+02  0.1270E+03
    -16.879  0.2959E+02  0.1274E+03
    -16.864  0.2954E+02  0.1278E+03
    -16.850  0.2946E+02  0.1283E+03
    -16.835  0.2936E+02  0.1287E+03
    -16.820  0.2924E+02  0.1291E+03
    -16.806  0.2911E+02  0.1296E+03
    -16.791  0.2897E+02  0.1300E+03
    -16.777  0.2881E+02  0.1304E+03
    -16.762  0.2865E+02  0.1308E+03
    -16.747  0.2849E+02  0.1312E+03
    -16.733  0.2832E+02  0.1317E+03
    -16.718  0.2815E+02  0.1321E+03
    -16.703  0.2799E+02  0.1325E+03
    -16.689  0.2783E+02  0.1329E+03
    -16.674  0.2768E+02  0.1333E+03
    -16.659  0.2755E+02  0.1337E+03
    -16.645  0.2743E+02  0.1341E+03
    -16.630  0.2734E+02  0.1345E+03
    -16.615  0.2726E+02  0.1349E+03
    -16.601  0.2721E+02  0.1353E+03
    -16.586  0.2720E+02  0.1357E+03
    -16.571  0.2721E+02  0.1361E+03
    -16.557  0.2726E+02  0.1365E+03
    -16.542  0.2734E+02  0.1369E+03
    -16.527  0.2745E+02  0.1373E+03
    -16.513  0.2760E+02  0.1377E+03
    -16.498  0.2777E+02  0.1381E+03
    -16.483  0.2797E+02  0.1385E+03
    -16.469  0.2818E+02  0.1389E+03
    -16.454  0.2840E+02  0.1393E+03
    -16.439  0.2863E+02  0.1398E+03
    -16.425  0.2885E+02  0.1402E+03
    -16.410  0.2906E+02  0.1406E+03
    -16.395  0.2926E+02  0.1410E+03
    -16.381  0.2943E+02  0.1415E+03
    -16.366  0.2957E+02  0.1419E+03
    -16.351  0.2968E+02  0.1423E+03
    -16.337  0.2976E+02  0.1428E+03
    -16.322  0.2980E+02  0.1432E+03
    -16.307  0.2981E+02  0.1437E+03
    -16.293  0.2978E+02  0.1441E+03
    -16.278  0.2973E+02  0.1445E+03
    -16.263  0.2965E+02  0.1450E+03
    -16.249  0.2954E+02  0.1454E+03
    -16.234  0.2942E+02  0.1458E+03
    -16.219  0.2929E+02  0.1463E+03
    -16.205  0.2916E+02  0.1467E+03
    -16.190  0.2902E+02  0.1471E+03
    -16.175  0.2889E+02  0.1475E+03
    -16.161  0.2876E+02  0.1480E+03
    -16.146  0.2864E+02  0.1484E+03
    -16.131  0.2853E+02  0.1488E+03
    -16.117  0.2843E+02  0.1492E+03
    -16.102  0.2834E+02  0.1496E+03
    -16.087  0.2825E+02  0.1500E+03
    -16.073  0.2817E+02  0.1505E+03
    -16.058  0.2809E+02  0.1509E+03
    -16.043  0.2801E+02  0.1513E+03
    -16.029  0.2793E+02  0.1517E+03
    -16.014  0.2785E+02  0.1521E+03
    -15.999  0.2776E+02  0.1525E+03
    -15.985  0.2768E+02  0.1529E+03
    -15.970  0.2759E+02  0.1533E+03
    -15.955  0.2750E+02  0.1537E+03
    -15.941  0.2741E+02  0.1541E+03
    -15.926  0.2732E+02  0.1545E+03
    -15.911  0.2725E+02  0.1549E+03
    -15.897  0.2719E+02  0.1553E+03
    -15.882  0.2715E+02  0.1557E+03
    -15.867  0.2714E+02  0.1561E+03
    -15.853  0.2714E+02  0.1565E+03
    -15.838  0.2718E+02  0.1569E+03
    -15.823  0.2725E+02  0.1573E+03
    -15.809  0.2735E+02  0.1577E+03
    -15.794  0.2749E+02  0.1581E+03
    -15.779  0.2765E+02  0.1585E+03
    -15.765  0.2784E+02  0.1589E+03
    -15.750  0.2806E+02  0.1593E+03
    -15.735  0.2830E+02  0.1598E+03
    -15.721  0.2855E+02  0.1602E+03
    -15.706  0.2881E+02  0.1606E+03
    -15.691  0.2907E+02  0.1610E+03
    -15.677  0.2932E+02  0.1615E+03
    -15.662  0.2957E+02  0.1619E+03
    -15.647  0.2979E+02  0.1623E+03
    -15.633  0.3000E+02  0.1628E+03
    -15.618  0.3017E+02  0.1632E+03
    -15.603  0.3032E+02  0.1636E+03
    -15.589  0.3043E+02  0.1641E+03
    -15.574  0.3051E+02  0.1645E+03
    -15.560  0.3056E+02  0.1650E+03
    -15.545  0.3057E+02  0.1654E+03
    -15.530  0.3055E+02  0.1659E+03
    -15.516  0.3051E+02  0.1663E+03
    -15.501  0.3044E+02  0.1668E+03
    -15.486  0.3035E+02  0.1672E+03
    -15.472  0.3025E+02  0.1677E+03
    -15.457  0.3013E+02  0.1681E+03
    -15.442  0.3001E+02  0.1685E+03
    -15.428  0.2988E+02  0.1690E+03
    -15.413  0.2975E+02  0.1694E+03
    -15.398  0.2962E+02  0.1699E+03
    -15.384  0.2950E+02  0.1703E+03
    -15.369  0.2939E+02  0.1707E+03
    -15.354  0.2928E+02  0.1712E+03
    -15.340  0.2918E+02  0.1716E+03
    -15.325  0.2910E+02  0.1720E+03
    -15.310  0.2903E+02  0.1724E+03
    -15.296  0.2897E+02  0.1729E+03
    -15.281  0.2892E+02  0.1733E+03
    -15.266  0.2888E+02  0.1737E+03
    -15.252  0.2885E+02  0.1741E+03
    -15.237  0.2883E+02  0.1745E+03
    -15.222  0.2882E+02  0.1750E+03
    -15.208  0.2881E+02  0.1754E+03
    -15.193  0.2879E+02  0.1758E+03
    -15.178  0.2878E+02  0.1762E+03
    -15.164  0.2875E+02  0.1767E+03
    -15.149  0.2872E+02  0.1771E+03
    -15.134  0.2867E+02  0.1775E+03
    -15.120  0.2860E+02  0.1779E+03
    -15.105  0.2851E+02  0.1783E+03
    -15.090  0.2839E+02  0.1788E+03
    -15.076  0.2825E+02  0.1792E+03
    -15.061  0.2807E+02  0.1796E+03
    -15.046  0.2787E+02  0.1800E+03
    -15.032  0.2764E+02  0.1804E+03
    -15.017  0.2739E+02  0.1808E+03
    -15.002  0.2711E+02  0.1812E+03
    -14.988  0.2682E+02  0.1816E+03
    -14.973  0.2652E+02  0.1820E+03
    -14.958  0.2621E+02  0.1824E+03
    -14.944  0.2591E+02  0.1827E+03
    -14.929  0.2562E+02  0.1831E+03
    -14.914  0.2534E+02  0.1835E+03
    -14.900  0.2509E+02  0.1839E+03
    -14.885  0.2487E+02  0.1842E+03
    -14.870  0.2469E+02  0.1846E+03
    -14.856  0.2455E+02  0.1849E+03
    -14.841  0.2444E+02  0.1853E+03
    -14.826  0.2438E+02  0.1857E+03
    -14.812  0.2436E+02  0.1860E+03
    -14.797  0.2437E+02  0.1864E+03
    -14.782  0.2442E+02  0.1867E+03
    -14.768  0.2450E+02  0.1871E+03
    -14.753  0.2461E+02  0.1874E+03
    -14.738  0.2473E+02  0.1878E+03
    -14.724  0.2487E+02  0.1882E+03
    -14.709  0.2502E+02  0.1885E+03
    -14.694  0.2517E+02  0.1889E+03
    -14.680  0.2533E+02  0.1893E+03
    -14.665  0.2549E+02  0.1897E+03
    -14.650  0.2565E+02  0.1900E+03
    -14.636  0.2581E+02  0.1904E+03
    -14.621  0.2596E+02  0.1908E+03
    -14.606  0.2611E+02  0.1912E+03
    -14.592  0.2627E+02  0.1916E+03
    -14.577  0.2642E+02  0.1919E+03
    -14.562  0.2658E+02  0.1923E+03
    -14.548  0.2675E+02  0.1927E+03
    -14.533  0.2692E+02  0.1931E+03
    -14.518  0.2710E+02  0.1935E+03
    -14.504  0.2729E+02  0.1939E+03
    -14.489  0.2748E+02  0.1943E+03
    -14.474  0.2768E+02  0.1947E+03
    -14.460  0.2787E+02  0.1951E+03
    -14.445  0.2807E+02  0.1956E+03
    -14.430  0.2826E+02  0.1960E+03
    -14.416  0.2843E+02  0.1964E+03
    -14.401  0.2860E+02  0.1968E+03
    -14.386  0.2873E+02  0.1972E+03
    -14.372  0.2885E+02  0.1976E+03
    -14.357  0.2893E+02  0.1981E+03
    -14.343  0.2897E+02  0.1985E+03
    -14.328  0.2899E+02  0.1989E+03
    -14.313  0.2896E+02  0.1993E+03
    -14.299  0.2890E+02  0.1998E+03
    -14.284  0.2880E+02  0.2002E+03
    -14.269  0.2867E+02  0.2006E+03
    -14.255  0.2852E+02  0.2010E+03
    -14.240  0.2835E+02  0.2014E+03
    -14.225  0.2817E+02  0.2019E+03
    -14.211  0.2798E+02  0.2023E+03
    -14.196  0.2780E+02  0.2027E+03
    -14.181  0.2764E+02  0.2031E+03
    -14.167  0.2749E+02  0.2035E+03
    -14.152  0.2737E+02  0.2039E+03
    -14.137  0.2729E+02  0.2043E+03
    -14.123  0.2725E+02  0.2047E+03
    -14.108  0.2725E+02  0.2051E+03
    -14.093  0.2730E+02  0.2055E+03
    -14.079  0.2739E+02  0.2059E+03
    -14.064  0.2754E+02  0.2063E+03
    -14.049  0.2773E+02  0.2067E+03
    -14.035  0.2796E+02  0.2071E+03
    -14.020  0.2824E+02  0.2075E+03
    -14.005  0.2855E+02  0.2079E+03
    -13.991  0.2888E+02  0.2084E+03
    -13.976  0.2924E+02  0.2088E+03
    -13.961  0.2961E+02  0.2092E+03
    -13.947  0.3000E+02  0.2097E+03
    -13.932  0.3038E+02  0.2101E+03
    -13.917  0.3076E+02  0.2106E+03
    -13.903  0.3113E+02  0.2110E+03
    -13.888  0.3148E+02  0.2115E+03
    -13.873  0.3181E+02  0.2119E+03
    -13.859  0.3211E+02  0.2124E+03
    -13.844  0.3237E+02  0.2129E+03
    -13.829  0.3259E+02  0.2134E+03
    -13.815  0.3277E+02  0.2139E+03
    -13.800  0.3290E+02  0.2143E+03
    -13.785  0.3298E+02  0.2148E+03
    -13.771  0.3302E+02  0.2153E+03
    -13.756  0.3301E+02  0.2158E+03
    -13.741  0.3295E+02  0.2163E+03
    -13.727  0.3285E+02  0.2167E+03
    -13.712  0.3272E+02  0.2172E+03
    -13.697  0.3255E+02  0.2177E+03
    -13.683  0.3236E+02  0.2182E+03
    -13.668  0.3216E+02  0.2187E+03
    -13.653  0.3194E+02  0.2191E+03
    -13.639  0.3171E+02  0.2196E+03
    -13.624  0.3149E+02  0.2200E+03
    -13.609  0.3128E+02  0.2205E+03
    -13.595  0.3108E+02  0.2210E+03
    -13.580  0.3089E+02  0.2214E+03
    -13.565  0.3072E+02  0.2219E+03
    -13.551  0.3056E+02  0.2223E+03
    -13.536  0.3042E+02  0.2228E+03
    -13.521  0.3030E+02  0.2232E+03
    -13.507  0.3018E+02  0.2236E+03
    -13.492  0.3008E+02  0.2241E+03
    -13.477  0.2998E+02  0.2245E+03
    -13.463  0.2989E+02  0.2250E+03
    -13.448  0.2981E+02  0.2254E+03
    -13.433  0.2972E+02  0.2258E+03
    -13.419  0.2964E+02  0.2263E+03
    -13.404  0.2956E+02  0.2267E+03
    -13.389  0.2949E+02  0.2271E+03
    -13.375  0.2942E+02  0.2276E+03
    -13.360  0.2937E+02  0.2280E+03
    -13.345  0.2933E+02  0.2284E+03
    -13.331  0.2931E+02  0.2289E+03
    -13.316  0.2931E+02  0.2293E+03
    -13.301  0.2933E+02  0.2297E+03
    -13.287  0.2937E+02  0.2302E+03
    -13.272  0.2943E+02  0.2306E+03
    -13.257  0.2952E+02  0.2310E+03
    -13.243  0.2961E+02  0.2314E+03
    -13.228  0.2972E+02  0.2319E+03
    -13.213  0.2983E+02  0.2323E+03
    -13.199  0.2994E+02  0.2328E+03
    -13.184  0.3004E+02  0.2332E+03
    -13.169  0.3012E+02  0.2336E+03
    -13.155  0.3017E+02  0.2341E+03
    -13.140  0.3019E+02  0.2345E+03
    -13.126  0.3018E+02  0.2350E+03
    -13.111  0.3012E+02  0.2354E+03
    -13.096  0.3001E+02  0.2359E+03
    -13.082  0.2986E+02  0.2363E+03
    -13.067  0.2967E+02  0.2367E+03
    -13.052  0.2944E+02  0.2372E+03
    -13.038  0.2917E+02  0.2376E+03
    -13.023  0.2888E+02  0.2380E+03
    -13.008  0.2856E+02  0.2384E+03
    -12.994  0.2823E+02  0.2388E+03
    -12.979  0.2789E+02  0.2393E+03
    -12.964  0.2756E+02  0.2397E+03
    -12.950  0.2724E+02  0.2401E+03
    -12.935  0.2695E+02  0.2404E+03
    -12.920  0.2667E+02  0.2408E+03
    -12.906  0.2644E+02  0.2412E+03
    -12.891  0.2623E+02  0.2416E+03
    -12.876  0.2608E+02  0.2420E+03
    -12.862  0.2596E+02  0.2424E+03
    -12.847  0.2589E+02  0.2428E+03
    -12.832  0.2586E+02  0.2431E+03
    -12.818  0.2588E+02  0.2435E+03
    -12.803  0.2595E+02  0.2439E+03
    -12.788  0.2605E+02  0.2443E+03
    -12.774  0.2619E+02  0.2447E+03
    -12.759  0.2636E+02  0.2450E+03
    -12.744  0.2656E+02  0.2454E+03
    -12.730  0.2678E+02  0.2458E+03
    -12.715  0.2701E+02  0.2462E+03
    -12.700  0.2726E+02  0.2466E+03
    -12.686  0.2750E+02  0.2470E+03
    -12.671  0.2774E+02  0.2474E+03
    -12.656  0.2797E+02  0.2478E+03
    -12.642  0.2819E+02  0.2483E+03
    -12.627  0.2838E+02  0.2487E+03
    -12.612  0.2854E+02  0.2491E+03
    -12.598  0.2868E+02  0.2495E+03
    -12.583  0.2878E+02  0.2499E+03
    -12.568  0.2885E+02  0.2504E+03
    -12.554  0.2890E+02  0.2508E+03
    -12.539  0.2891E+02  0.2512E+03
    -12.524  0.2890E+02  0.2516E+03
    -12.510  0.2886E+02  0.2521E+03
    -12.495  0.2881E+02  0.2525E+03
    -12.480  0.2874E+02  0.2529E+03
    -12.466  0.2867E+02  0.2533E+03
    -12.451  0.2861E+02  0.2537E+03
    -12.436  0.2854E+02  0.2542E+03
    -12.422  0.2849E+02  0.2546E+03
    -12.407  0.2846E+02  0.2550E+03
    -12.392  0.2846E+02  0.2554E+03
    -12.378  0.2847E+02  0.2558E+03
    -12.363  0.2852E+02  0.2562E+03
    -12.348  0.2859E+02  0.2567E+03
    -12.334  0.2870E+02  0.2571E+03
    -12.319  0.2883E+02  0.2575E+03