  96  96   0   0
  0.2619380E+02  0.1704000E-08  0.1475707E-08  0.1000000E-08  0.5000000E-15
  1.000000000000000E-004
  CAR 
 unknown system                          
      6.55066011    -23.87161809 2000     -1.02603160      1.00000000
    -23.872  0.0000E+00  0.0000E+00
    -23.856  0.0000E+00  0.0000E+00
    -23.841  0.0000E+00  0.0000E+00
    -23.826  0.0000E+00  0.0000E+00
    -23.811  0.0000E+00  0.0000E+00
    -23.796  0.0000E+00  0.0000E+00
    -23.780  0.0000E+00  0.0000E+00
    -23.765  0.0000E+00  0.0000E+00
    -23.750  0.0000E+00  0.0000E+00
    -23.735  0.0000E+00  0.0000E+00
    -23.719  0.0000E+00  0.0000E+00
    -23.704  0.0000E+00  0.0000E+00
    -23.689  0.0000E+00  0.0000E+00
    -23.674  0.0000E+00  0.0000E+00
    -23.659  0.0000E+00  0.0000E+00
    -23.643  0.0000E+00  0.0000E+00
    -23.628  0.0000E+00  0.0000E+00
    -23.613  0.0000E+00  0.0000E+00
    -23.598  0.0000E+00  0.0000E+00
    -23.582  0.0000E+00  0.0000E+00
    -23.567  0.0000E+00  0.0000E+00
    -23.552  0.0000E+00  0.0000E+00
    -23.537  0.0000E+00  0.0000E+00
    -23.522  0.0000E+00  0.0000E+00
    -23.506  0.0000E+00  0.0000E+00
    -23.491  0.0000E+00  0.0000E+00
    -23.476  0.0000E+00  0.0000E+00
    -23.461  0.0000E+00  0.0000E+00
    -23.445  0.0000E+00  0.0000E+00
    -23.430  0.0000E+00  0.0000E+00
    -23.415  0.0000E+00  0.0000E+00
    -23.400  0.0000E+00  0.0000E+00
    -23.385  0.0000E+00  0.0000E+00
    -23.369  0.0000E+00  0.0000E+00
    -23.354  0.0000E+00  0.0000E+00
    -23.339  0.0000E+00  0.0000E+00
    -23.324  0.0000E+00  0.0000E+00
    -23.309  0.0000E+00  0.0000E+00
    -23.293  0.0000E+00  0.0000E+00
    -23.278  0.0000E+00  0.0000E+00
    -23.263  0.0000E+00  0.0000E+00
    -23.248  0.0000E+00  0.0000E+00
    -23.232  0.0000E+00  0.0000E+00
    -23.217  0.0000E+00  0.0000E+00
    -23.202  0.0000E+00  0.0000E+00
    -23.187  0.0000E+00  0.0000E+00
    -23.172  0.0000E+00  0.0000E+00
    -23.156  0.0000E+00  0.0000E+00
    -23.141  0.0000E+00  0.0000E+00
    -23.126  0.0000E+00  0.0000E+00
    -23.111  0.0000E+00  0.0000E+00
    -23.095  0.0000E+00  0.0000E+00
    -23.080  0.0000E+00  0.0000E+00
    -23.065  0.0000E+00  0.0000E+00
    -23.050  0.7295E-14  0.1110E-15
    -23.035  0.7295E-14  0.2220E-15
    -23.019  0.1459E-13  0.4441E-15
    -23.004  0.4053E-13  0.1061E-14
    -22.989  0.1029E-12  0.2628E-14
    -22.974  0.2286E-12  0.6106E-14
    -22.958  0.5398E-12  0.1432E-13
    -22.943  0.1229E-11  0.3302E-13
    -22.928  0.2776E-11  0.7527E-13
    -22.913  0.6205E-11  0.1697E-12
    -22.898  0.1370E-10  0.3783E-12
    -22.882  0.2992E-10  0.8336E-12
    -22.867  0.6458E-10  0.1816E-11
    -22.852  0.1378E-09  0.3913E-11
    -22.837  0.2905E-09  0.8334E-11
    -22.822  0.6056E-09  0.1755E-10
    -22.806  0.1248E-08  0.3654E-10
    -22.791  0.2542E-08  0.7523E-10
    -22.776  0.5118E-08  0.1531E-09
    -22.761  0.1019E-07  0.3082E-09
    -22.745  0.2004E-07  0.6132E-09
    -22.730  0.3898E-07  0.1206E-08
    -22.715  0.7493E-07  0.2347E-08
    -22.700  0.1424E-06  0.4514E-08
    -22.685  0.2675E-06  0.8584E-08
    -22.669  0.4967E-06  0.1614E-07
    -22.654  0.9116E-06  0.3002E-07
    -22.639  0.1654E-05  0.5519E-07
    -22.624  0.2966E-05  0.1003E-06
    -22.608  0.5259E-05  0.1804E-06
    -22.593  0.9217E-05  0.3206E-06
    -22.578  0.1597E-04  0.5636E-06
    -22.563  0.2734E-04  0.9797E-06
    -22.548  0.4628E-04  0.1684E-05
    -22.532  0.7744E-04  0.2862E-05
    -22.517  0.1281E-03  0.4812E-05
    -22.502  0.2094E-03  0.7998E-05
    -22.487  0.3384E-03  0.1315E-04
    -22.471  0.5406E-03  0.2138E-04
    -22.456  0.8538E-03  0.3437E-04
    -22.441  0.1333E-02  0.5465E-04
    -22.426  0.2057E-02  0.8595E-04
    -22.411  0.3137E-02  0.1337E-03
    -22.395  0.4730E-02  0.2057E-03
    -22.380  0.7049E-02  0.3130E-03
    -22.365  0.1039E-01  0.4710E-03
    -22.350  0.1513E-01  0.7012E-03
    -22.335  0.2177E-01  0.1033E-02
    -22.319  0.3098E-01  0.1504E-02
    -22.304  0.4359E-01  0.2167E-02
    -22.289  0.6060E-01  0.3090E-02
    -22.274  0.8330E-01  0.4357E-02
    -22.258  0.1132E+00  0.6080E-02
    -22.243  0.1520E+00  0.8393E-02
    -22.228  0.2018E+00  0.1146E-01
    -22.213  0.2648E+00  0.1549E-01
    -22.198  0.3435E+00  0.2072E-01
    -22.182  0.4405E+00  0.2743E-01
    -22.167  0.5584E+00  0.3593E-01
    -22.152  0.6997E+00  0.4657E-01
    -22.137  0.8666E+00  0.5976E-01
    -22.121  0.1061E+01  0.7591E-01
    -22.106  0.1284E+01  0.9545E-01
    -22.091  0.1536E+01  0.1188E+00
    -22.076  0.1817E+01  0.1465E+00
    -22.061  0.2123E+01  0.1788E+00
    -22.045  0.2454E+01  0.2161E+00
    -22.030  0.2803E+01  0.2588E+00
    -22.015  0.3164E+01  0.3069E+00
    -22.000  0.3532E+01  0.3607E+00
    -21.984  0.3896E+01  0.4200E+00
    -21.969  0.4249E+01  0.4847E+00
    -21.954  0.4581E+01  0.5544E+00
    -21.939  0.4882E+01  0.6287E+00
    -21.924  0.5142E+01  0.7069E+00
    -21.908  0.5354E+01  0.7884E+00
    -21.893  0.5511E+01  0.8723E+00
    -21.878  0.5607E+01  0.9576E+00
    -21.863  0.5639E+01  0.1043E+01
    -21.848  0.5606E+01  0.1129E+01
    -21.832  0.5509E+01  0.1213E+01
    -21.817  0.5352E+01  0.1294E+01
    -21.802  0.5139E+01  0.1372E+01
    -21.787  0.4878E+01  0.1446E+01
    -21.771  0.4577E+01  0.1516E+01
    -21.756  0.4245E+01  0.1581E+01
    -21.741  0.3892E+01  0.1640E+01
    -21.726  0.3527E+01  0.1694E+01
    -21.711  0.3160E+01  0.1742E+01
    -21.695  0.2798E+01  0.1784E+01
    -21.680  0.2450E+01  0.1822E+01
    -21.665  0.2120E+01  0.1854E+01
    -21.650  0.1813E+01  0.1881E+01
    -21.634  0.1533E+01  0.1905E+01
    -21.619  0.1281E+01  0.1924E+01
    -21.604  0.1059E+01  0.1940E+01
    -21.589  0.8647E+00  0.1954E+01
    -21.574  0.6983E+00  0.1964E+01
    -21.558  0.5577E+00  0.1973E+01
    -21.543  0.4405E+00  0.1979E+01
    -21.528  0.3445E+00  0.1985E+01
    -21.513  0.2670E+00  0.1989E+01
    -21.497  0.2057E+00  0.1992E+01
    -21.482  0.1582E+00  0.1994E+01
    -21.467  0.1227E+00  0.1996E+01
    -21.452  0.9750E-01  0.1998E+01
    -21.437  0.8129E-01  0.1999E+01
    -21.421  0.7324E-01  0.2000E+01
    -21.406  0.7290E-01  0.2001E+01
    -21.391  0.8030E-01  0.2002E+01
    -21.376  0.9588E-01  0.2004E+01
    -21.361  0.1206E+00  0.2006E+01
    -21.345  0.1557E+00  0.2008E+01
    -21.330  0.2030E+00  0.2011E+01
    -21.315  0.2649E+00  0.2015E+01
    -21.300  0.3438E+00  0.2020E+01
    -21.284  0.4427E+00  0.2027E+01
    -21.269  0.5649E+00  0.2036E+01
    -21.254  0.7138E+00  0.2046E+01
    -21.239  0.8928E+00  0.2060E+01
    -21.224  0.1105E+01  0.2077E+01
    -21.208  0.1354E+01  0.2098E+01
    -21.193  0.1643E+01  0.2123E+01
    -21.178  0.1973E+01  0.2153E+01
    -21.163  0.2346E+01  0.2188E+01
    -21.147  0.2762E+01  0.2230E+01
    -21.132  0.3220E+01  0.2279E+01
    -21.117  0.3719E+01  0.2336E+01
    -21.102  0.4255E+01  0.2401E+01
    -21.087  0.4824E+01  0.2474E+01
    -21.071  0.5420E+01  0.2557E+01
    -21.056  0.6036E+01  0.2648E+01
    -21.041  0.6664E+01  0.2750E+01
    -21.026  0.7297E+01  0.2861E+01
    -21.010  0.7926E+01  0.2981E+01
    -20.995  0.8541E+01  0.3111E+01
    -20.980  0.9135E+01  0.3250E+01
    -20.965  0.9699E+01  0.3398E+01
    -20.950  0.1023E+02  0.3554E+01
    -20.934  0.1071E+02  0.3717E+01
    -20.919  0.1115E+02  0.3886E+01
    -20.904  0.1154E+02  0.4062E+01
    -20.889  0.1187E+02  0.4243E+01
    -20.874  0.1215E+02  0.4428E+01
    -20.858  0.1238E+02  0.4616E+01
    -20.843  0.1256E+02  0.4807E+01
    -20.828  0.1268E+02  0.5000E+01
    -20.813  0.1277E+02  0.5194E+01
    -20.797  0.1282E+02  0.5390E+01
    -20.782  0.1283E+02  0.5585E+01
    -20.767  0.1282E+02  0.5780E+01
    -20.752  0.1280E+02  0.5975E+01
    -20.737  0.1275E+02  0.6169E+01
    -20.721  0.1271E+02  0.6362E+01
    -20.706  0.1266E+02  0.6555E+01
    -20.691  0.1262E+02  0.6747E+01
    -20.676  0.1259E+02  0.6939E+01
    -20.660  0.1258E+02  0.7130E+01
    -20.645  0.1259E+02  0.7322E+01
    -20.630  0.1262E+02  0.7514E+01
    -20.615  0.1268E+02  0.7707E+01
    -20.600  0.1276E+02  0.7901E+01
    -20.584  0.1287E+02  0.8097E+01
    -20.569  0.1300E+02  0.8295E+01
    -20.554  0.1315E+02  0.8495E+01
    -20.539  0.1331E+02  0.8698E+01
    -20.523  0.1348E+02  0.8903E+01
    -20.508  0.1366E+02  0.9111E+01
    -20.493  0.1383E+02  0.9321E+01
    -20.478  0.1400E+02  0.9534E+01
    -20.463  0.1416E+02  0.9750E+01
    -20.447  0.1430E+02  0.9967E+01
    -20.432  0.1442E+02  0.1019E+02
    -20.417  0.1452E+02  0.1041E+02
    -20.402  0.1459E+02  0.1063E+02
    -20.387  0.1463E+02  0.1085E+02
    -20.371  0.1465E+02  0.1108E+02
    -20.356  0.1465E+02  0.1130E+02
    -20.341  0.1462E+02  0.1152E+02
    -20.326  0.1457E+02  0.1174E+02
    -20.310  0.1451E+02  0.1196E+02
    -20.295  0.1443E+02  0.1218E+02
    -20.280  0.1435E+02  0.1240E+02
    -20.265  0.1426E+02  0.1262E+02
    -20.250  0.1416E+02  0.1283E+02
    -20.234  0.1407E+02  0.1305E+02
    -20.219  0.1398E+02  0.1326E+02
    -20.204  0.1390E+02  0.1347E+02
    -20.189  0.1383E+02  0.1368E+02
    -20.173  0.1376E+02  0.1389E+02
    -20.158  0.1371E+02  0.1410E+02
    -20.143  0.1367E+02  0.1431E+02
    -20.128  0.1364E+02  0.1452E+02
    -20.113  0.1362E+02  0.1472E+02
    -20.097  0.1362E+02  0.1493E+02
    -20.082  0.1364E+02  0.1514E+02
    -20.067  0.1367E+02  0.1535E+02
    -20.052  0.1371E+02  0.1556E+02
    -20.036  0.1376E+02  0.1576E+02
    -20.021  0.1383E+02  0.1597E+02
    -20.006  0.1391E+02  0.1619E+02
    -19.991  0.1399E+02  0.1640E+02
    -19.976  0.1408E+02  0.1661E+02
    -19.960  0.1417E+02  0.1683E+02
    -19.945  0.1426E+02  0.1705E+02
    -19.930  0.1435E+02  0.1726E+02
    -19.915  0.1443E+02  0.1748E+02
    -19.900  0.1450E+02  0.1771E+02
    -19.884  0.1456E+02  0.1793E+02
    -19.869  0.1461E+02  0.1815E+02
    -19.854  0.1464E+02  0.1837E+02
    -19.839  0.1465E+02  0.1859E+02
    -19.823  0.1464E+02  0.1882E+02
    -19.808  0.1462E+02  0.1904E+02
    -19.793  0.1458E+02  0.1926E+02
    -19.778  0.1452E+02  0.1948E+02
    -19.763  0.1445E+02  0.1970E+02
    -19.747  0.1436E+02  0.1992E+02
    -19.732  0.1427E+02  0.2014E+02
    -19.717  0.1417E+02  0.2035E+02
    -19.702  0.1407E+02  0.2057E+02
    -19.686  0.1397E+02  0.2078E+02
    -19.671  0.1388E+02  0.2099E+02
    -19.656  0.1379E+02  0.2120E+02
    -19.641  0.1372E+02  0.2141E+02
    -19.626  0.1366E+02  0.2162E+02
    -19.610  0.1363E+02  0.2183E+02
    -19.595  0.1362E+02  0.2203E+02
    -19.580  0.1364E+02  0.2224E+02
    -19.565  0.1369E+02  0.2245E+02
    -19.549  0.1378E+02  0.2266E+02
    -19.534  0.1389E+02  0.2287E+02
    -19.519  0.1403E+02  0.2308E+02
    -19.504  0.1420E+02  0.2330E+02
    -19.489  0.1439E+02  0.2352E+02
    -19.473  0.1460E+02  0.2374E+02
    -19.458  0.1482E+02  0.2397E+02
    -19.443  0.1504E+02  0.2420E+02
    -19.428  0.1525E+02  0.2443E+02
    -19.413  0.1546E+02  0.2466E+02
    -19.397  0.1564E+02  0.2490E+02
    -19.382  0.1580E+02  0.2514E+02
    -19.367  0.1592E+02  0.2538E+02
    -19.352  0.1602E+02  0.2563E+02
    -19.336  0.1607E+02  0.2587E+02
    -19.321  0.1609E+02  0.2612E+02
    -19.306  0.1608E+02  0.2636E+02
    -19.291  0.1603E+02  0.2661E+02
    -19.276  0.1594E+02  0.2685E+02
    -19.260  0.1584E+02  0.2709E+02
    -19.245  0.1571E+02  0.2733E+02
    -19.230  0.1556E+02  0.2757E+02
    -19.215  0.1540E+02  0.2780E+02
    -19.199  0.1523E+02  0.2803E+02
    -19.184  0.1506E+02  0.2826E+02
    -19.169  0.1489E+02  0.2849E+02
    -19.154  0.1471E+02  0.2871E+02
    -19.139  0.1455E+02  0.2893E+02
    -19.123  0.1439E+02  0.2915E+02
    -19.108  0.1424E+02  0.2937E+02
    -19.093  0.1411E+02  0.2958E+02
    -19.078  0.1399E+02  0.2980E+02
    -19.062  0.1389E+02  0.3001E+02
    -19.047  0.1381E+02  0.3022E+02
    -19.032  0.1375E+02  0.3043E+02
    -19.017  0.1373E+02  0.3064E+02
    -19.002  0.1373E+02  0.3084E+02
    -18.986  0.1376E+02  0.3105E+02
    -18.971  0.1382E+02  0.3126E+02
    -18.956  0.1392E+02  0.3148E+02
    -18.941  0.1404E+02  0.3169E+02
    -18.926  0.1420E+02  0.3191E+02
    -18.910  0.1439E+02  0.3213E+02
    -18.895  0.1460E+02  0.3235E+02
    -18.880  0.1483E+02  0.3257E+02
    -18.865  0.1507E+02  0.3280E+02
    -18.849  0.1532E+02  0.3304E+02
    -18.834  0.1557E+02  0.3327E+02
    -18.819  0.1582E+02  0.3351E+02
    -18.804  0.1605E+02  0.3376E+02
    -18.789  0.1627E+02  0.3400E+02
    -18.773  0.1645E+02  0.3426E+02
    -18.758  0.1661E+02  0.3451E+02
    -18.743  0.1674E+02  0.3476E+02
    -18.728  0.1683E+02  0.3502E+02
    -18.712  0.1688E+02  0.3528E+02
    -18.697  0.1688E+02  0.3553E+02
    -18.682  0.1685E+02  0.3579E+02
    -18.667  0.1677E+02  0.3604E+02
    -18.652  0.1666E+02  0.3630E+02
    -18.636  0.1651E+02  0.3655E+02
    -18.621  0.1632E+02  0.3680E+02
    -18.606  0.1611E+02  0.3704E+02
    -18.591  0.1588E+02  0.3728E+02
    -18.575  0.1563E+02  0.3752E+02
    -18.560  0.1537E+02  0.3776E+02
    -18.545  0.1511E+02  0.3799E+02
    -18.530  0.1485E+02  0.3821E+02
    -18.515  0.1461E+02  0.3843E+02
    -18.499  0.1438E+02  0.3865E+02
    -18.484  0.1418E+02  0.3887E+02
    -18.469  0.1401E+02  0.3908E+02
    -18.454  0.1387E+02  0.3929E+02
    -18.439  0.1377E+02  0.3950E+02
    -18.423  0.1371E+02  0.3971E+02
    -18.408  0.1370E+02  0.3992E+02
    -18.393  0.1372E+02  0.4013E+02
    -18.378  0.1378E+02  0.4034E+02
    -18.362  0.1388E+02  0.4055E+02
    -18.347  0.1401E+02  0.4076E+02
    -18.332  0.1416E+02  0.4098E+02
    -18.317  0.1434E+02  0.4120E+02
    -18.302  0.1452E+02  0.4142E+02
    -18.286  0.1471E+02  0.4164E+02
    -18.271  0.1489E+02  0.4187E+02
    -18.256  0.1506E+02  0.4210E+02
    -18.241  0.1522E+02  0.4233E+02
    -18.225  0.1535E+02  0.4256E+02
    -18.210  0.1546E+02  0.4280E+02
    -18.195  0.1554E+02  0.4303E+02
    -18.180  0.1558E+02  0.4327E+02
    -18.165  0.1560E+02  0.4351E+02
    -18.149  0.1559E+02  0.4375E+02
    -18.134  0.1555E+02  0.4398E+02
    -18.119  0.1549E+02  0.4422E+02
    -18.104  0.1541E+02  0.4445E+02
    -18.088  0.1533E+02  0.4469E+02
    -18.073  0.1524E+02  0.4492E+02
    -18.058  0.1515E+02  0.4515E+02
    -18.043  0.1507E+02  0.4538E+02
    -18.028  0.1501E+02  0.4561E+02
    -18.012  0.1496E+02  0.4583E+02
    -17.997  0.1493E+02  0.4606E+02
    -17.982  0.1492E+02  0.4629E+02
    -17.967  0.1493E+02  0.4652E+02
    -17.952  0.1496E+02  0.4674E+02
    -17.936  0.1501E+02  0.4697E+02
    -17.921  0.1507E+02  0.4720E+02
    -17.906  0.1513E+02  0.4743E+02
    -17.891  0.1520E+02  0.4766E+02
    -17.875  0.1527E+02  0.4790E+02
    -17.860  0.1533E+02  0.4813E+02
    -17.845  0.1538E+02  0.4836E+02
    -17.830  0.1542E+02  0.4860E+02
    -17.815  0.1545E+02  0.4883E+02
    -17.799  0.1546E+02  0.4907E+02
    -17.784  0.1545E+02  0.4930E+02
    -17.769  0.1543E+02  0.4954E+02
    -17.754  0.1540E+02  0.4977E+02
    -17.738  0.1535E+02  0.5001E+02
    -17.723  0.1529E+02  0.5024E+02
    -17.708  0.1522E+02  0.5047E+02
    -17.693  0.1515E+02  0.5070E+02
    -17.678  0.1507E+02  0.5093E+02
    -17.662  0.1498E+02  0.5116E+02
    -17.647  0.1490E+02  0.5138E+02
    -17.632  0.1481E+02  0.5161E+02
    -17.617  0.1473E+02  0.5183E+02
    -17.601  0.1465E+02  0.5206E+02
    -17.586  0.1457E+02  0.5228E+02
    -17.571  0.1450E+02  0.5250E+02
    -17.556  0.1445E+02  0.5272E+02
    -17.541  0.1440E+02  0.5294E+02
    -17.525  0.1436E+02  0.5316E+02
    -17.510  0.1434E+02  0.5338E+02
    -17.495  0.1433E+02  0.5359E+02
    -17.480  0.1434E+02  0.5381E+02
    -17.465  0.1437E+02  0.5403E+02
    -17.449  0.1441E+02  0.5425E+02
    -17.434  0.1447E+02  0.5447E+02
    -17.419  0.1454E+02  0.5469E+02
    -17.404  0.1463E+02  0.5491E+02
    -17.388  0.1474E+02  0.5514E+02
    -17.373  0.1485E+02  0.5536E+02
    -17.358  0.1499E+02  0.5559E+02
    -17.343  0.1513E+02  0.5582E+02
    -17.328  0.1527E+02  0.5606E+02
    -17.312  0.1543E+02  0.5629E+02
    -17.297  0.1559E+02  0.5653E+02
    -17.282  0.1575E+02  0.5677E+02
    -17.267  0.1591E+02  0.5701E+02
    -17.251  0.1607E+02  0.5725E+02
    -17.236  0.1623E+02  0.5750E+02
    -17.221  0.1638E+02  0.5775E+02
    -17.206  0.1651E+02  0.5800E+02
    -17.191  0.1664E+02  0.5825E+02
    -17.175  0.1675E+02  0.5851E+02
    -17.160  0.1684E+02  0.5877E+02
    -17.145  0.1692E+02  0.5902E+02
    -17.130  0.1697E+02  0.5928E+02
    -17.114  0.1700E+02  0.5954E+02
    -17.099  0.1701E+02  0.5980E+02
    -17.084  0.1699E+02  0.6006E+02
    -17.069  0.1694E+02  0.6032E+02
    -17.054  0.1687E+02  0.6057E+02
    -17.038  0.1678E+02  0.6083E+02
    -17.023  0.1666E+02  0.6108E+02
    -17.008  0.1651E+02  0.6133E+02
    -16.993  0.1635E+02  0.6158E+02
    -16.978  0.1617E+02  0.6183E+02
    -16.962  0.1598E+02  0.6207E+02
    -16.947  0.1579E+02  0.6231E+02
    -16.932  0.1559E+02  0.6255E+02
    -16.917  0.1540E+02  0.6278E+02
    -16.901  0.1522E+02  0.6301E+02
    -16.886  0.1506E+02  0.6324E+02
    -16.871  0.1492E+02  0.6347E+02
    -16.856  0.1482E+02  0.6370E+02
    -16.841  0.1474E+02  0.6392E+02
    -16.825  0.1470E+02  0.6414E+02
    -16.810  0.1470E+02  0.6437E+02
    -16.795  0.1473E+02  0.6459E+02
    -16.780  0.1480E+02  0.6482E+02
    -16.764  0.1490E+02  0.6504E+02
    -16.749  0.1503E+02  0.6527E+02
    -16.734  0.1519E+02  0.6550E+02
    -16.719  0.1537E+02  0.6574E+02
    -16.704  0.1557E+02  0.6597E+02
    -16.688  0.1577E+02  0.6621E+02
    -16.673  0.1598E+02  0.6646E+02
    -16.658  0.1619E+02  0.6670E+02
    -16.643  0.1639E+02  0.6695E+02
    -16.627  0.1658E+02  0.6721E+02
    -16.612  0.1675E+02  0.6746E+02
    -16.597  0.1690E+02  0.6772E+02
    -16.582  0.1702E+02  0.6798E+02
    -16.567  0.1712E+02  0.6824E+02
    -16.551  0.1719E+02  0.6850E+02
    -16.536  0.1722E+02  0.6876E+02
    -16.521  0.1721E+02  0.6902E+02
    -16.506  0.1717E+02  0.6928E+02
    -16.491  0.1710E+02  0.6954E+02
    -16.475  0.1699E+02  0.6980E+02
    -16.460  0.1685E+02  0.7006E+02
    -16.445  0.1669E+02  0.7031E+02
    -16.430  0.1650E+02  0.7056E+02
    -16.414  0.1631E+02  0.7081E+02
    -16.399  0.1610E+02  0.7106E+02
    -16.384  0.1590E+02  0.7130E+02
    -16.369  0.1571E+02  0.7154E+02
    -16.354  0.1553E+02  0.7178E+02
    -16.338  0.1537E+02  0.7201E+02
    -16.323  0.1525E+02  0.7224E+02
    -16.308  0.1515E+02  0.7247E+02
    -16.293  0.1510E+02  0.7270E+02
    -16.277  0.1508E+02  0.7293E+02
    -16.262  0.1511E+02  0.7316E+02
    -16.247  0.1517E+02  0.7339E+02
    -16.232  0.1527E+02  0.7362E+02
    -16.217  0.1541E+02  0.7386E+02
    -16.201  0.1558E+02  0.7410E+02
    -16.186  0.1578E+02  0.7434E+02
    -16.171  0.1600E+02  0.7458E+02
    -16.156  0.1624E+02  0.7483E+02
    -16.140  0.1648E+02  0.7508E+02
    -16.125  0.1673E+02  0.7533E+02
    -16.110  0.1698E+02  0.7559E+02
    -16.095  0.1722E+02  0.7585E+02
    -16.080  0.1745E+02  0.7612E+02
    -16.064  0.1766E+02  0.7639E+02
    -16.049  0.1786E+02  0.7666E+02
    -16.034  0.1803E+02  0.7693E+02
    -16.019  0.1818E+02  0.7721E+02
    -16.004  0.1829E+02  0.7749E+02
    -15.988  0.1838E+02  0.7777E+02
    -15.973  0.1844E+02  0.7805E+02
    -15.958  0.1846E+02  0.7833E+02
    -15.943  0.1846E+02  0.7861E+02
    -15.927  0.1842E+02  0.7889E+02
    -15.912  0.1836E+02  0.7917E+02
    -15.897  0.1826E+02  0.7945E+02
    -15.882  0.1815E+02  0.7972E+02
    -15.867  0.1800E+02  0.8000E+02
    -15.851  0.1784E+02  0.8027E+02
    -15.836  0.1766E+02  0.8054E+02
    -15.821  0.1747E+02  0.8080E+02
    -15.806  0.1727E+02  0.8107E+02
    -15.790  0.1707E+02  0.8133E+02
    -15.775  0.1686E+02  0.8158E+02
    -15.760  0.1665E+02  0.8184E+02
    -15.745  0.1645E+02  0.8209E+02
    -15.730  0.1624E+02  0.8233E+02
    -15.714  0.1604E+02  0.8258E+02
    -15.699  0.1585E+02  0.8282E+02
    -15.684  0.1566E+02  0.8306E+02
    -15.669  0.1547E+02  0.8329E+02
    -15.653  0.1528E+02  0.8353E+02
    -15.638  0.1510E+02  0.8376E+02
    -15.623  0.1492E+02  0.8398E+02
    -15.608  0.1474E+02  0.8421E+02
    -15.593  0.1456E+02  0.8443E+02
    -15.577  0.1437E+02  0.8465E+02
    -15.562  0.1419E+02  0.8486E+02
    -15.547  0.1400E+02  0.8508E+02
    -15.532  0.1380E+02  0.8529E+02
    -15.517  0.1360E+02  0.8549E+02
    -15.501  0.1340E+02  0.8570E+02
    -15.486  0.1319E+02  0.8590E+02
    -15.471  0.1298E+02  0.8610E+02
    -15.456  0.1277E+02  0.8629E+02
    -15.440  0.1255E+02  0.8648E+02
    -15.425  0.1234E+02  0.8667E+02
    -15.410  0.1213E+02  0.8685E+02
    -15.395  0.1192E+02  0.8704E+02
    -15.380  0.1173E+02  0.8721E+02
    -15.364  0.1155E+02  0.8739E+02
    -15.349  0.1139E+02  0.8756E+02
    -15.334  0.1126E+02  0.8773E+02
    -15.319  0.1115E+02  0.8790E+02
    -15.303  0.1107E+02  0.8807E+02
    -15.288  0.1103E+02  0.8824E+02
    -15.273  0.1102E+02  0.8841E+02
    -15.258  0.1105E+02  0.8858E+02
    -15.243  0.1112E+02  0.8875E+02
    -15.227  0.1123E+02  0.8892E+02
    -15.212  0.1137E+02  0.8909E+02
    -15.197  0.1154E+02  0.8926E+02
    -15.182  0.1174E+02  0.8944E+02
    -15.166  0.1196E+02  0.8963E+02
    -15.151  0.1220E+02  0.8981E+02
    -15.136  0.1245E+02  0.9000E+02
    -15.121  0.1271E+02  0.9019E+02
    -15.106  0.1297E+02  0.9039E+02
    -15.090  0.1322E+02  0.9059E+02
    -15.075  0.1345E+02  0.9080E+02
    -15.060  0.1367E+02  0.9101E+02
    -15.045  0.1387E+02  0.9122E+02
    -15.030  0.1404E+02  0.9143E+02
    -15.014  0.1418E+02  0.9165E+02
    -14.999  0.1428E+02  0.9186E+02
    -14.984  0.1434E+02  0.9208E+02
    -14.969  0.1436E+02  0.9230E+02
    -14.953  0.1434E+02  0.9252E+02
    -14.938  0.1428E+02  0.9274E+02
    -14.923  0.1418E+02  0.9295E+02
    -14.908  0.1404E+02  0.9317E+02
    -14.893  0.1386E+02  0.9338E+02
    -14.877  0.1366E+02  0.9358E+02
    -14.862  0.1344E+02  0.9379E+02
    -14.847  0.1320E+02  0.9399E+02
    -14.832  0.1295E+02  0.9419E+02
    -14.816  0.1271E+02  0.9438E+02
    -14.801  0.1247E+02  0.9457E+02
    -14.786  0.1226E+02  0.9476E+02
    -14.771  0.1207E+02  0.9494E+02
    -14.756  0.1192E+02  0.9512E+02
    -14.740  0.1180E+02  0.9530E+02
    -14.725  0.1172E+02  0.9548E+02
    -14.710  0.1169E+02  0.9566E+02
    -14.695  0.1169E+02  0.9584E+02
    -14.679  0.1174E+02  0.9601E+02
    -14.664  0.1182E+02  0.9619E+02
    -14.649  0.1194E+02  0.9638E+02
    -14.634  0.1208E+02  0.9656E+02
    -14.619  0.1225E+02  0.9675E+02
    -14.603  0.1244E+02  0.9694E+02
    -14.588  0.1264E+02  0.9713E+02
    -14.573  0.1284E+02  0.9732E+02
    -14.558  0.1305E+02  0.9752E+02
    -14.543  0.1326E+02  0.9772E+02
    -14.527  0.1347E+02  0.9793E+02
    -14.512  0.1366E+02  0.9814E+02
    -14.497  0.1385E+02  0.9835E+02
    -14.482  0.1404E+02  0.9856E+02
    -14.466  0.1421E+02  0.9878E+02
    -14.451  0.1437E+02  0.9900E+02
    -14.436  0.1452E+02  0.9922E+02
    -14.421  0.1465E+02  0.9944E+02
    -14.406  0.1478E+02  0.9966E+02
    -14.390  0.1489E+02  0.9989E+02
    -14.375  0.1499E+02  0.1001E+03
    -14.360  0.1508E+02  0.1003E+03
    -14.345  0.1515E+02  0.1006E+03
    -14.329  0.1521E+02  0.1008E+03
    -14.314  0.1525E+02  0.1010E+03
    -14.299  0.1528E+02  0.1013E+03
    -14.284  0.1529E+02  0.1015E+03
    -14.269  0.1529E+02  0.1017E+03
    -14.253  0.1528E+02  0.1020E+03
    -14.238  0.1526E+02  0.1022E+03
    -14.223  0.1524E+02  0.1024E+03
    -14.208  0.1521E+02  0.1027E+03
    -14.192  0.1518E+02  0.1029E+03
    -14.177  0.1515E+02  0.1031E+03
    -14.162  0.1514E+02  0.1034E+03
    -14.147  0.1513E+02  0.1036E+03
    -14.132  0.1515E+02  0.1038E+03
    -14.116  0.1517E+02  0.1041E+03
    -14.101  0.1522E+02  0.1043E+03
    -14.086  0.1529E+02  0.1045E+03
    -14.071  0.1537E+02  0.1048E+03
    -14.056  0.1547E+02  0.1050E+03
    -14.040  0.1559E+02  0.1052E+03
    -14.025  0.1572E+02  0.1055E+03
    -14.010  0.1585E+02  0.1057E+03
    -13.995  0.1599E+02  0.1059E+03
    -13.979  0.1613E+02  0.1062E+03
    -13.964  0.1626E+02  0.1064E+03
    -13.949  0.1639E+02  0.1067E+03
    -13.934  0.1652E+02  0.1069E+03
    -13.919  0.1663E+02  0.1072E+03
    -13.903  0.1674E+02  0.1074E+03
    -13.888  0.1684E+02  0.1077E+03
    -13.873  0.1693E+02  0.1080E+03
    -13.858  0.1701E+02  0.1082E+03
    -13.842  0.1708E+02  0.1085E+03
    -13.827  0.1715E+02  0.1087E+03
    -13.812  0.1721E+02  0.1090E+03
    -13.797  0.1727E+02  0.1093E+03
    -13.782  0.1732E+02  0.1095E+03
    -13.766  0.1736E+02  0.1098E+03
    -13.751  0.1740E+02  0.1101E+03
    -13.736  0.1743E+02  0.1103E+03
    -13.721  0.1745E+02  0.1106E+03
    -13.705  0.1745E+02  0.1109E+03
    -13.690  0.1745E+02  0.1111E+03
    -13.675  0.1742E+02  0.1114E+03
    -13.660  0.1739E+02  0.1117E+03
    -13.645  0.1733E+02  0.1119E+03
    -13.629  0.1725E+02  0.1122E+03
    -13.614  0.1716E+02  0.1124E+03
    -13.599  0.1705E+02  0.1127E+03
    -13.584  0.1691E+02  0.1130E+03
    -13.569  0.1676E+02  0.1132E+03
    -13.553  0.1659E+02  0.1135E+03
    -13.538  0.1641E+02  0.1137E+03
    -13.523  0.1621E+02  0.1140E+03
    -13.508  0.1601E+02  0.1142E+03
    -13.492  0.1580E+02  0.1144E+03
    -13.477  0.1558E+02  0.1147E+03
    -13.462  0.1537E+02  0.1149E+03
    -13.447  0.1517E+02  0.1151E+03
    -13.432  0.1497E+02  0.1154E+03
    -13.416  0.1480E+02  0.1156E+03
    -13.401  0.1464E+02  0.1158E+03
    -13.386  0.1450E+02  0.1160E+03
    -13.371  0.1440E+02  0.1163E+03
    -13.355  0.1431E+02  0.1165E+03
    -13.340  0.1426E+02  0.1167E+03
    -13.325  0.1423E+02  0.1169E+03
    -13.310  0.1423E+02  0.1171E+03
    -13.295  0.1426E+02  0.1173E+03
    -13.279  0.1430E+02  0.1176E+03
    -13.264  0.1436E+02  0.1178E+03
    -13.249  0.1444E+02  0.1180E+03
    -13.234  0.1452E+02  0.1182E+03
    -13.218  0.1461E+02  0.1184E+03
    -13.203  0.1471E+02  0.1187E+03
    -13.188  0.1480E+02  0.1189E+03
    -13.173  0.1489E+02  0.1191E+03
    -13.158  0.1499E+02  0.1193E+03
    -13.142  0.1508E+02  0.1196E+03
    -13.127  0.1517E+02  0.1198E+03
    -13.112  0.1526E+02  0.1200E+03
    -13.097  0.1535E+02  0.1203E+03
    -13.082  0.1545E+02  0.1205E+03
    -13.066  0.1555E+02  0.1207E+03
    -13.051  0.1566E+02  0.1210E+03
    -13.036  0.1577E+02  0.1212E+03
    -13.021  0.1589E+02  0.1215E+03
    -13.005  0.1602E+02  0.1217E+03
    -12.990  0.1615E+02  0.1220E+03
    -12.975  0.1628E+02  0.1222E+03
    -12.960  0.1641E+02  0.1225E+03
    -12.945  0.1653E+02  0.1227E+03
    -12.929  0.1664E+02  0.1230E+03
    -12.914  0.1673E+02  0.1232E+03
    -12.899  0.1680E+02  0.1235E+03
    -12.884  0.1685E+02  0.1237E+03
    -12.868  0.1688E+02  0.1240E+03
    -12.853  0.1687E+02  0.1242E+03
    -12.838  0.1684E+02  0.1245E+03
    -12.823  0.1678E+02  0.1248E+03
    -12.808  0.1669E+02  0.1250E+03
    -12.792  0.1657E+02  0.1253E+03
    -12.777  0.1644E+02  0.1255E+03
    -12.762  0.1629E+02  0.1258E+03
    -12.747  0.1613E+02  0.1260E+03
    -12.731  0.1597E+02  0.1262E+03
    -12.716  0.1580E+02  0.1265E+03
    -12.701  0.1563E+02  0.1267E+03
    -12.686  0.1546E+02  0.1270E+03
    -12.671  0.1531E+02  0.1272E+03
    -12.655  0.1516E+02  0.1274E+03
    -12.640  0.1503E+02  0.1277E+03
    -12.625  0.1491E+02  0.1279E+03
    -12.610  0.1480E+02  0.1281E+03
    -12.595  0.1471E+02  0.1283E+03
    -12.579  0.1464E+02  0.1285E+03
    -12.564  0.1458E+02  0.1288E+03
    -12.549  0.1453E+02  0.1290E+03
    -12.534  0.1450E+02  0.1292E+03
    -12.518  0.1448E+02  0.1294E+03
    -12.503  0.1447E+02  0.1297E+03
    -12.488  0.1447E+02  0.1299E+03
    -12.473  0.1448E+02  0.1301E+03
    -12.458  0.1450E+02  0.1303E+03
    -12.442  0.1452E+02  0.1305E+03
    -12.427  0.1453E+02  0.1308E+03
    -12.412  0.1455E+02  0.1310E+03
    -12.397  0.1456E+02  0.1312E+03
    -12.381  0.1456E+02  0.1314E+03
    -12.366  0.1455E+02  0.1316E+03
    -12.351  0.1452E+02  0.1319E+03
    -12.336  0.1449E+02  0.1321E+03
    -12.321  0.1444E+02  0.1323E+03
    -12.305  0.1438E+02  0.1325E+03
    -12.290  0.1430E+02  0.1327E+03
    -12.275  0.1422E+02  0.1330E+03
    -12.260  0.1413E+02  0.1332E+03
    -12.244  0.1404E+02  0.1334E+03
    -12.229  0.1394E+02  0.1336E+03
    -12.214  0.1385E+02  0.1338E+03
    -12.199  0.1378E+02  0.1340E+03
    -12.184  0.1371E+02  0.1342E+03
    -12.168  0.1367E+02  0.1344E+03
    -12.153  0.1364E+02  0.1346E+03
    -12.138  0.1365E+02  0.1349E+03
    -12.123  0.1368E+02  0.1351E+03
    -12.108  0.1375E+02  0.1353E+03
    -12.092  0.1385E+02  0.1355E+03
    -12.077  0.1398E+02  0.1357E+03
    -12.062  0.1415E+02  0.1359E+03
    -12.047  0.1435E+02  0.1361E+03
    -12.031  0.1458E+02  0.1363E+03
    -12.016  0.1484E+02  0.1366E+03
    -12.001  0.1512E+02  0.1368E+03
    -11.986  0.1542E+02  0.1370E+03
    -11.971  0.1574E+02  0.1373E+03
    -11.955  0.1605E+02  0.1375E+03
    -11.940  0.1637E+02  0.1378E+03
    -11.925  0.1668E+02  0.1380E+03
    -11.910  0.1697E+02  0.1383E+03
    -11.894  0.1724E+02  0.1385E+03
    -11.879  0.1748E+02  0.1388E+03
    -11.864  0.1768E+02  0.1391E+03
    -11.849  0.1785E+02  0.1394E+03
    -11.834  0.1798E+02  0.1396E+03
    -11.818  0.1807E+02  0.1399E+03
    -11.803  0.1812E+02  0.1402E+03
    -11.788  0.1812E+02  0.1405E+03
    -11.773  0.1809E+02  0.1407E+03
    -11.757  0.1802E+02  0.1410E+03
    -11.742  0.1793E+02  0.1413E+03
    -11.727  0.1780E+02  0.1415E+03
    -11.712  0.1766E+02  0.1418E+03
    -11.697  0.1750E+02  0.1421E+03
    -11.681  0.1733E+02  0.1423E+03
    -11.666  0.1716E+02  0.1426E+03
    -11.651  0.1699E+02  0.1429E+03
    -11.636  0.1683E+02  0.1431E+03
    -11.621  0.1667E+02  0.1434E+03
    -11.605  0.1652E+02  0.1436E+03
    -11.590  0.1639E+02  0.1439E+03
    -11.575  0.1627E+02  0.1441E+03
    -11.560  0.1616E+02  0.1444E+03
    -11.544  0.1607E+02  0.1446E+03
    -11.529  0.1599E+02  0.1449E+03
    -11.514  0.1592E+02  0.1451E+03
    -11.499  0.1587E+02  0.1453E+03
    -11.484  0.1583E+02  0.1456E+03
    -11.468  0.1580E+02  0.1458E+03
    -11.453  0.1578E+02  0.1461E+03
    -11.438  0.1578E+02  0.1463E+03
    -11.423  0.1580E+02  0.1465E+03
    -11.407  0.1584E+02  0.1468E+03
    -11.392  0.1589E+02  0.1470E+03
    -11.377  0.1596E+02  0.1473E+03
    -11.362  0.1606E+02  0.1475E+03
    -11.347  0.1617E+02  0.1478E+03
    -11.331  0.1631E+02  0.1480E+03
    -11.316  0.1646E+02  0.1483E+03