  96  96   0   0
  0.5187547E+02  0.1695650E-08  0.1468476E-08  0.2000000E-08  0.5000000E-15
  1.000000000000000E-004
  CAR 
 unknown system                          
      3.77432450    -24.12446932 2000     -3.58085661      1.00000000
    -24.124  0.0000E+00  0.0000E+00
    -24.111  0.0000E+00  0.0000E+00
    -24.097  0.0000E+00  0.0000E+00
    -24.083  0.0000E+00  0.0000E+00
    -24.069  0.0000E+00  0.0000E+00
    -24.055  0.0000E+00  0.0000E+00
    -24.041  0.0000E+00  0.0000E+00
    -24.027  0.0000E+00  0.0000E+00
    -24.013  0.0000E+00  0.0000E+00
    -23.999  0.0000E+00  0.0000E+00
    -23.985  0.0000E+00  0.0000E+00
    -23.971  0.0000E+00  0.0000E+00
    -23.957  0.0000E+00  0.0000E+00
    -23.943  0.0000E+00  0.0000E+00
    -23.929  0.0000E+00  0.0000E+00
    -23.915  0.0000E+00  0.0000E+00
    -23.901  0.0000E+00  0.0000E+00
    -23.887  0.0000E+00  0.0000E+00
    -23.873  0.0000E+00  0.0000E+00
    -23.859  0.0000E+00  0.0000E+00
    -23.845  0.0000E+00  0.0000E+00
    -23.831  0.0000E+00  0.0000E+00
    -23.817  0.0000E+00  0.0000E+00
    -23.803  0.0000E+00  0.0000E+00
    -23.790  0.0000E+00  0.0000E+00
    -23.776  0.0000E+00  0.0000E+00
    -23.762  0.0000E+00  0.0000E+00
    -23.748  0.0000E+00  0.0000E+00
    -23.734  0.0000E+00  0.0000E+00
    -23.720  0.0000E+00  0.0000E+00
    -23.706  0.0000E+00  0.0000E+00
    -23.692  0.0000E+00  0.0000E+00
    -23.678  0.0000E+00  0.0000E+00
    -23.664  0.0000E+00  0.0000E+00
    -23.650  0.0000E+00  0.0000E+00
    -23.636  0.0000E+00  0.0000E+00
    -23.622  0.0000E+00  0.0000E+00
    -23.608  0.0000E+00  0.0000E+00
    -23.594  0.0000E+00  0.0000E+00
    -23.580  0.0000E+00  0.0000E+00
    -23.566  0.0000E+00  0.0000E+00
    -23.552  0.0000E+00  0.0000E+00
    -23.538  0.0000E+00  0.0000E+00
    -23.524  0.0000E+00  0.0000E+00
    -23.510  0.0000E+00  0.0000E+00
    -23.496  0.0000E+00  0.0000E+00
    -23.482  0.0000E+00  0.0000E+00
    -23.469  0.0000E+00  0.0000E+00
    -23.455  0.0000E+00  0.0000E+00
    -23.441  0.0000E+00  0.0000E+00
    -23.427  0.0000E+00  0.0000E+00
    -23.413  0.0000E+00  0.0000E+00
    -23.399  0.0000E+00  0.0000E+00
    -23.385  0.0000E+00  0.0000E+00
    -23.371  0.0000E+00  0.0000E+00
    -23.357  0.0000E+00  0.0000E+00
    -23.343  0.0000E+00  0.0000E+00
    -23.329  0.0000E+00  0.0000E+00
    -23.315  0.0000E+00  0.0000E+00
    -23.301  0.8839E-15  0.1234E-16
    -23.287  0.4419E-14  0.7401E-16
    -23.273  0.7071E-14  0.1727E-15
    -23.259  0.1326E-13  0.3577E-15
    -23.245  0.3182E-13  0.8018E-15
    -23.231  0.7248E-13  0.1813E-14
    -23.217  0.1573E-12  0.4009E-14
    -23.203  0.3394E-12  0.8746E-14
    -23.189  0.7301E-12  0.1894E-13
    -23.175  0.1545E-11  0.4050E-13
    -23.161  0.3253E-11  0.8589E-13
    -23.148  0.6775E-11  0.1804E-12
    -23.134  0.1397E-10  0.3754E-12
    -23.120  0.2852E-10  0.7735E-12
    -23.106  0.5771E-10  0.1579E-11
    -23.092  0.1156E-09  0.3192E-11
    -23.078  0.2294E-09  0.6394E-11
    -23.064  0.4507E-09  0.1268E-10
    -23.050  0.8771E-09  0.2493E-10
    -23.036  0.1691E-08  0.4852E-10
    -23.022  0.3227E-08  0.9356E-10
    -23.008  0.6101E-08  0.1787E-09
    -22.994  0.1142E-07  0.3381E-09
    -22.980  0.2118E-07  0.6337E-09
    -22.966  0.3890E-07  0.1177E-08
    -22.952  0.7075E-07  0.2164E-08
    -22.938  0.1274E-06  0.3943E-08
    -22.924  0.2274E-06  0.7116E-08
    -22.910  0.4017E-06  0.1272E-07
    -22.896  0.7030E-06  0.2253E-07
    -22.882  0.1218E-05  0.3954E-07
    -22.868  0.2091E-05  0.6873E-07
    -22.854  0.3555E-05  0.1183E-06
    -22.840  0.5986E-05  0.2019E-06
    -22.827  0.9983E-05  0.3412E-06
    -22.813  0.1649E-04  0.5713E-06
    -22.799  0.2697E-04  0.9477E-06
    -22.785  0.4369E-04  0.1557E-05
    -22.771  0.7010E-04  0.2536E-05
    -22.757  0.1114E-03  0.4091E-05
    -22.743  0.1754E-03  0.6538E-05
    -22.729  0.2734E-03  0.1035E-04
    -22.715  0.4221E-03  0.1624E-04
    -22.701  0.6455E-03  0.2525E-04
    -22.687  0.9777E-03  0.3890E-04
    -22.673  0.1467E-02  0.5937E-04
    -22.659  0.2180E-02  0.8979E-04
    -22.645  0.3208E-02  0.1346E-03
    -22.631  0.4678E-02  0.1999E-03
    -22.617  0.6755E-02  0.2941E-03
    -22.603  0.9662E-02  0.4290E-03
    -22.589  0.1369E-01  0.6200E-03
    -22.575  0.1921E-01  0.8882E-03
    -22.561  0.2671E-01  0.1261E-02
    -22.547  0.3679E-01  0.1775E-02
    -22.533  0.5020E-01  0.2475E-02
    -22.519  0.6785E-01  0.3422E-02
    -22.506  0.9086E-01  0.4690E-02
    -22.492  0.1206E+00  0.6373E-02
    -22.478  0.1585E+00  0.8584E-02
    -22.464  0.2064E+00  0.1146E-01
    -22.450  0.2663E+00  0.1518E-01
    -22.436  0.3406E+00  0.1994E-01
    -22.422  0.4316E+00  0.2596E-01
    -22.408  0.5421E+00  0.3353E-01
    -22.394  0.6748E+00  0.4294E-01
    -22.380  0.8326E+00  0.5456E-01
    -22.366  0.1018E+01  0.6878E-01
    -22.352  0.1235E+01  0.8601E-01
    -22.338  0.1484E+01  0.1067E+00
    -22.324  0.1770E+01  0.1314E+00
    -22.310  0.2092E+01  0.1606E+00
    -22.296  0.2453E+01  0.1949E+00
    -22.282  0.2853E+01  0.2347E+00
    -22.268  0.3292E+01  0.2806E+00
    -22.254  0.3770E+01  0.3332E+00
    -22.240  0.4284E+01  0.3930E+00
    -22.226  0.4833E+01  0.4605E+00
    -22.212  0.5412E+01  0.5360E+00
    -22.198  0.6019E+01  0.6200E+00
    -22.185  0.6647E+01  0.7128E+00
    -22.171  0.7293E+01  0.8146E+00
    -22.157  0.7951E+01  0.9255E+00
    -22.143  0.8614E+01  0.1046E+01
    -22.129  0.9277E+01  0.1175E+01
    -22.115  0.9932E+01  0.1314E+01
    -22.101  0.1057E+02  0.1461E+01
    -22.087  0.1120E+02  0.1618E+01
    -22.073  0.1180E+02  0.1782E+01
    -22.059  0.1236E+02  0.1955E+01
    -22.045  0.1290E+02  0.2135E+01
    -22.031  0.1339E+02  0.2322E+01
    -22.017  0.1384E+02  0.2515E+01
    -22.003  0.1424E+02  0.2714E+01
    -21.989  0.1458E+02  0.2917E+01
    -21.975  0.1488E+02  0.3125E+01
    -21.961  0.1512E+02  0.3336E+01
    -21.947  0.1530E+02  0.3549E+01
    -21.933  0.1543E+02  0.3765E+01
    -21.919  0.1551E+02  0.3981E+01
    -21.905  0.1553E+02  0.4198E+01
    -21.891  0.1550E+02  0.4414E+01
    -21.877  0.1542E+02  0.4629E+01
    -21.864  0.1529E+02  0.4843E+01
    -21.850  0.1513E+02  0.5054E+01
    -21.836  0.1493E+02  0.5262E+01
    -21.822  0.1469E+02  0.5467E+01
    -21.808  0.1444E+02  0.5669E+01
    -21.794  0.1416E+02  0.5866E+01
    -21.780  0.1387E+02  0.6060E+01
    -21.766  0.1357E+02  0.6249E+01
    -21.752  0.1326E+02  0.6434E+01
    -21.738  0.1296E+02  0.6615E+01
    -21.724  0.1266E+02  0.6792E+01
    -21.710  0.1238E+02  0.6965E+01
    -21.696  0.1211E+02  0.7134E+01
    -21.682  0.1187E+02  0.7299E+01
    -21.668  0.1165E+02  0.7462E+01
    -21.654  0.1146E+02  0.7622E+01
    -21.640  0.1130E+02  0.7779E+01
    -21.626  0.1118E+02  0.7935E+01
    -21.612  0.1109E+02  0.8090E+01
    -21.598  0.1104E+02  0.8244E+01
    -21.584  0.1103E+02  0.8398E+01
    -21.570  0.1106E+02  0.8553E+01
    -21.556  0.1113E+02  0.8708E+01
    -21.543  0.1123E+02  0.8865E+01
    -21.529  0.1137E+02  0.9024E+01
    -21.515  0.1153E+02  0.9185E+01
    -21.501  0.1172E+02  0.9348E+01
    -21.487  0.1194E+02  0.9515E+01
    -21.473  0.1216E+02  0.9685E+01
    -21.459  0.1239E+02  0.9857E+01
    -21.445  0.1263E+02  0.1003E+02
    -21.431  0.1286E+02  0.1021E+02
    -21.417  0.1308E+02  0.1040E+02
    -21.403  0.1329E+02  0.1058E+02
    -21.389  0.1347E+02  0.1077E+02
    -21.375  0.1363E+02  0.1096E+02
    -21.361  0.1376E+02  0.1115E+02
    -21.347  0.1385E+02  0.1134E+02
    -21.333  0.1391E+02  0.1154E+02
    -21.319  0.1393E+02  0.1173E+02
    -21.305  0.1392E+02  0.1193E+02
    -21.291  0.1388E+02  0.1212E+02
    -21.277  0.1381E+02  0.1231E+02
    -21.263  0.1371E+02  0.1251E+02
    -21.249  0.1360E+02  0.1270E+02
    -21.235  0.1348E+02  0.1288E+02
    -21.222  0.1336E+02  0.1307E+02
    -21.208  0.1323E+02  0.1325E+02
    -21.194  0.1312E+02  0.1344E+02
    -21.180  0.1301E+02  0.1362E+02
    -21.166  0.1293E+02  0.1380E+02
    -21.152  0.1287E+02  0.1398E+02
    -21.138  0.1282E+02  0.1416E+02
    -21.124  0.1281E+02  0.1434E+02
    -21.110  0.1281E+02  0.1452E+02
    -21.096  0.1284E+02  0.1469E+02
    -21.082  0.1288E+02  0.1487E+02
    -21.068  0.1293E+02  0.1506E+02
    -21.054  0.1300E+02  0.1524E+02
    -21.040  0.1307E+02  0.1542E+02
    -21.026  0.1314E+02  0.1560E+02
    -21.012  0.1320E+02  0.1579E+02
    -20.998  0.1326E+02  0.1597E+02
    -20.984  0.1331E+02  0.1616E+02
    -20.970  0.1336E+02  0.1634E+02
    -20.956  0.1339E+02  0.1653E+02
    -20.942  0.1341E+02  0.1672E+02
    -20.928  0.1343E+02  0.1691E+02
    -20.915  0.1344E+02  0.1709E+02
    -20.901  0.1344E+02  0.1728E+02
    -20.887  0.1345E+02  0.1747E+02
    -20.873  0.1346E+02  0.1766E+02
    -20.859  0.1347E+02  0.1784E+02
    -20.845  0.1350E+02  0.1803E+02
    -20.831  0.1353E+02  0.1822E+02
    -20.817  0.1356E+02  0.1841E+02
    -20.803  0.1361E+02  0.1860E+02
    -20.789  0.1366E+02  0.1879E+02
    -20.775  0.1372E+02  0.1898E+02
    -20.761  0.1378E+02  0.1917E+02
    -20.747  0.1384E+02  0.1937E+02
    -20.733  0.1389E+02  0.1956E+02
    -20.719  0.1394E+02  0.1976E+02
    -20.705  0.1397E+02  0.1995E+02
    -20.691  0.1400E+02  0.2015E+02
    -20.677  0.1401E+02  0.2034E+02
    -20.663  0.1402E+02  0.2054E+02
    -20.649  0.1401E+02  0.2073E+02
    -20.635  0.1400E+02  0.2093E+02
    -20.621  0.1398E+02  0.2112E+02
    -20.607  0.1397E+02  0.2132E+02
    -20.594  0.1396E+02  0.2151E+02
    -20.580  0.1396E+02  0.2171E+02
    -20.566  0.1397E+02  0.2190E+02
    -20.552  0.1400E+02  0.2210E+02
    -20.538  0.1404E+02  0.2229E+02
    -20.524  0.1411E+02  0.2249E+02
    -20.510  0.1420E+02  0.2269E+02
    -20.496  0.1431E+02  0.2289E+02
    -20.482  0.1444E+02  0.2309E+02
    -20.468  0.1458E+02  0.2329E+02
    -20.454  0.1473E+02  0.2350E+02
    -20.440  0.1488E+02  0.2371E+02
    -20.426  0.1504E+02  0.2392E+02
    -20.412  0.1519E+02  0.2413E+02
    -20.398  0.1534E+02  0.2434E+02
    -20.384  0.1547E+02  0.2456E+02
    -20.370  0.1558E+02  0.2478E+02
    -20.356  0.1568E+02  0.2500E+02
    -20.342  0.1576E+02  0.2522E+02
    -20.328  0.1582E+02  0.2544E+02
    -20.314  0.1585E+02  0.2566E+02
    -20.300  0.1587E+02  0.2588E+02
    -20.286  0.1587E+02  0.2610E+02
    -20.273  0.1586E+02  0.2632E+02
    -20.259  0.1583E+02  0.2654E+02
    -20.245  0.1579E+02  0.2676E+02
    -20.231  0.1574E+02  0.2698E+02
    -20.217  0.1568E+02  0.2720E+02
    -20.203  0.1562E+02  0.2742E+02
    -20.189  0.1555E+02  0.2764E+02
    -20.175  0.1547E+02  0.2785E+02
    -20.161  0.1539E+02  0.2807E+02
    -20.147  0.1531E+02  0.2828E+02
    -20.133  0.1522E+02  0.2849E+02
    -20.119  0.1512E+02  0.2870E+02
    -20.105  0.1502E+02  0.2891E+02
    -20.091  0.1491E+02  0.2912E+02
    -20.077  0.1480E+02  0.2933E+02
    -20.063  0.1468E+02  0.2953E+02
    -20.049  0.1455E+02  0.2974E+02
    -20.035  0.1442E+02  0.2994E+02
    -20.021  0.1428E+02  0.3014E+02
    -20.007  0.1415E+02  0.3034E+02
    -19.993  0.1402E+02  0.3053E+02
    -19.979  0.1389E+02  0.3072E+02
    -19.965  0.1377E+02  0.3092E+02
    -19.952  0.1366E+02  0.3111E+02
    -19.938  0.1357E+02  0.3130E+02
    -19.924  0.1349E+02  0.3149E+02
    -19.910  0.1343E+02  0.3167E+02
    -19.896  0.1339E+02  0.3186E+02
    -19.882  0.1338E+02  0.3205E+02
    -19.868  0.1339E+02  0.3223E+02
    -19.854  0.1342E+02  0.3242E+02
    -19.840  0.1347E+02  0.3261E+02
    -19.826  0.1354E+02  0.3280E+02
    -19.812  0.1363E+02  0.3299E+02
    -19.798  0.1374E+02  0.3318E+02
    -19.784  0.1386E+02  0.3337E+02
    -19.770  0.1398E+02  0.3357E+02
    -19.756  0.1411E+02  0.3376E+02
    -19.742  0.1424E+02  0.3396E+02
    -19.728  0.1436E+02  0.3416E+02
    -19.714  0.1448E+02  0.3437E+02
    -19.700  0.1459E+02  0.3457E+02
    -19.686  0.1469E+02  0.3477E+02
    -19.672  0.1477E+02  0.3498E+02
    -19.658  0.1485E+02  0.3519E+02
    -19.644  0.1490E+02  0.3540E+02
    -19.631  0.1495E+02  0.3560E+02
    -19.617  0.1498E+02  0.3581E+02
    -19.603  0.1499E+02  0.3602E+02
    -19.589  0.1500E+02  0.3623E+02
    -19.575  0.1499E+02  0.3644E+02
    -19.561  0.1497E+02  0.3665E+02
    -19.547  0.1495E+02  0.3686E+02
    -19.533  0.1491E+02  0.3707E+02
    -19.519  0.1487E+02  0.3727E+02
    -19.505  0.1482E+02  0.3748E+02
    -19.491  0.1477E+02  0.3769E+02
    -19.477  0.1472E+02  0.3789E+02
    -19.463  0.1468E+02  0.3810E+02
    -19.449  0.1464E+02  0.3830E+02
    -19.435  0.1460E+02  0.3851E+02
    -19.421  0.1458E+02  0.3871E+02
    -19.407  0.1458E+02  0.3891E+02
    -19.393  0.1460E+02  0.3912E+02
    -19.379  0.1465E+02  0.3932E+02
    -19.365  0.1472E+02  0.3953E+02
    -19.351  0.1483E+02  0.3973E+02
    -19.337  0.1497E+02  0.3994E+02
    -19.323  0.1515E+02  0.4015E+02
    -19.310  0.1537E+02  0.4037E+02
    -19.296  0.1563E+02  0.4059E+02
    -19.282  0.1592E+02  0.4081E+02
    -19.268  0.1624E+02  0.4104E+02
    -19.254  0.1659E+02  0.4127E+02
    -19.240  0.1697E+02  0.4150E+02
    -19.226  0.1735E+02  0.4175E+02
    -19.212  0.1775E+02  0.4199E+02
    -19.198  0.1814E+02  0.4225E+02
    -19.184  0.1852E+02  0.4251E+02
    -19.170  0.1889E+02  0.4277E+02
    -19.156  0.1923E+02  0.4304E+02
    -19.142  0.1953E+02  0.4331E+02
    -19.128  0.1979E+02  0.4359E+02
    -19.114  0.2001E+02  0.4387E+02
    -19.100  0.2018E+02  0.4415E+02
    -19.086  0.2029E+02  0.4443E+02
    -19.072  0.2035E+02  0.4471E+02
    -19.058  0.2035E+02  0.4500E+02
    -19.044  0.2030E+02  0.4528E+02
    -19.030  0.2020E+02  0.4556E+02
    -19.016  0.2004E+02  0.4584E+02
    -19.002  0.1984E+02  0.4612E+02
    -18.989  0.1959E+02  0.4639E+02
    -18.975  0.1931E+02  0.4666E+02
    -18.961  0.1899E+02  0.4693E+02
    -18.947  0.1865E+02  0.4719E+02
    -18.933  0.1828E+02  0.4744E+02
    -18.919  0.1789E+02  0.4769E+02
    -18.905  0.1749E+02  0.4794E+02
    -18.891  0.1708E+02  0.4818E+02
    -18.877  0.1667E+02  0.4841E+02
    -18.863  0.1625E+02  0.4864E+02
    -18.849  0.1585E+02  0.4886E+02
    -18.835  0.1545E+02  0.4907E+02
    -18.821  0.1507E+02  0.4928E+02
    -18.807  0.1470E+02  0.4949E+02
    -18.793  0.1436E+02  0.4969E+02
    -18.779  0.1404E+02  0.4988E+02
    -18.765  0.1374E+02  0.5008E+02
    -18.751  0.1348E+02  0.5026E+02
    -18.737  0.1325E+02  0.5045E+02
    -18.723  0.1305E+02  0.5063E+02
    -18.709  0.1289E+02  0.5081E+02
    -18.695  0.1276E+02  0.5099E+02
    -18.681  0.1266E+02  0.5117E+02
    -18.668  0.1260E+02  0.5134E+02
    -18.654  0.1258E+02  0.5152E+02
    -18.640  0.1258E+02  0.5169E+02
    -18.626  0.1262E+02  0.5187E+02
    -18.612  0.1268E+02  0.5205E+02
    -18.598  0.1278E+02  0.5222E+02
    -18.584  0.1289E+02  0.5240E+02
    -18.570  0.1302E+02  0.5259E+02
    -18.556  0.1317E+02  0.5277E+02
    -18.542  0.1334E+02  0.5296E+02
    -18.528  0.1351E+02  0.5314E+02
    -18.514  0.1369E+02  0.5334E+02
    -18.500  0.1387E+02  0.5353E+02
    -18.486  0.1405E+02  0.5372E+02
    -18.472  0.1422E+02  0.5392E+02
    -18.458  0.1439E+02  0.5412E+02
    -18.444  0.1454E+02  0.5433E+02
    -18.430  0.1468E+02  0.5453E+02
    -18.416  0.1481E+02  0.5474E+02
    -18.402  0.1492E+02  0.5495E+02
    -18.388  0.1501E+02  0.5516E+02
    -18.374  0.1508E+02  0.5537E+02
    -18.360  0.1514E+02  0.5558E+02
    -18.347  0.1517E+02  0.5579E+02
    -18.333  0.1519E+02  0.5600E+02
    -18.319  0.1519E+02  0.5621E+02
    -18.305  0.1517E+02  0.5643E+02
    -18.291  0.1515E+02  0.5664E+02
    -18.277  0.1511E+02  0.5685E+02
    -18.263  0.1507E+02  0.5706E+02
    -18.249  0.1503E+02  0.5727E+02
    -18.235  0.1500E+02  0.5748E+02
    -18.221  0.1496E+02  0.5769E+02
    -18.207  0.1494E+02  0.5789E+02
    -18.193  0.1493E+02  0.5810E+02
    -18.179  0.1494E+02  0.5831E+02
    -18.165  0.1497E+02  0.5852E+02
    -18.151  0.1501E+02  0.5873E+02
    -18.137  0.1508E+02  0.5894E+02
    -18.123  0.1517E+02  0.5915E+02
    -18.109  0.1529E+02  0.5937E+02
    -18.095  0.1542E+02  0.5958E+02
    -18.081  0.1556E+02  0.5980E+02
    -18.067  0.1572E+02  0.6002E+02
    -18.053  0.1589E+02  0.6024E+02
    -18.039  0.1606E+02  0.6046E+02
    -18.026  0.1623E+02  0.6069E+02
    -18.012  0.1640E+02  0.6092E+02
    -17.998  0.1655E+02  0.6115E+02
    -17.984  0.1669E+02  0.6138E+02
    -17.970  0.1680E+02  0.6162E+02
    -17.956  0.1690E+02  0.6185E+02
    -17.942  0.1697E+02  0.6209E+02
    -17.928  0.1701E+02  0.6233E+02
    -17.914  0.1702E+02  0.6256E+02
    -17.900  0.1701E+02  0.6280E+02
    -17.886  0.1697E+02  0.6304E+02
    -17.872  0.1691E+02  0.6327E+02
    -17.858  0.1683E+02  0.6351E+02
    -17.844  0.1674E+02  0.6374E+02
    -17.830  0.1663E+02  0.6398E+02
    -17.816  0.1651E+02  0.6421E+02
    -17.802  0.1639E+02  0.6443E+02
    -17.788  0.1627E+02  0.6466E+02
    -17.774  0.1615E+02  0.6489E+02
    -17.760  0.1603E+02  0.6511E+02
    -17.746  0.1592E+02  0.6533E+02
    -17.732  0.1582E+02  0.6555E+02
    -17.718  0.1573E+02  0.6577E+02
    -17.705  0.1564E+02  0.6599E+02
    -17.691  0.1557E+02  0.6621E+02
    -17.677  0.1550E+02  0.6643E+02
    -17.663  0.1544E+02  0.6664E+02
    -17.649  0.1539E+02  0.6686E+02
    -17.635  0.1534E+02  0.6707E+02
    -17.621  0.1530E+02  0.6728E+02
    -17.607  0.1526E+02  0.6750E+02
    -17.593  0.1523E+02  0.6771E+02
    -17.579  0.1521E+02  0.6792E+02
    -17.565  0.1519E+02  0.6813E+02
    -17.551  0.1519E+02  0.6834E+02
    -17.537  0.1519E+02  0.6856E+02
    -17.523  0.1521E+02  0.6877E+02
    -17.509  0.1524E+02  0.6898E+02
    -17.495  0.1528E+02  0.6920E+02
    -17.481  0.1534E+02  0.6941E+02
    -17.467  0.1541E+02  0.6962E+02
    -17.453  0.1550E+02  0.6984E+02
    -17.439  0.1561E+02  0.7006E+02
    -17.425  0.1572E+02  0.7028E+02
    -17.411  0.1585E+02  0.7050E+02
    -17.397  0.1598E+02  0.7072E+02
    -17.384  0.1612E+02  0.7095E+02
    -17.370  0.1625E+02  0.7117E+02
    -17.356  0.1638E+02  0.7140E+02
    -17.342  0.1650E+02  0.7163E+02
    -17.328  0.1660E+02  0.7186E+02
    -17.314  0.1669E+02  0.7210E+02
    -17.300  0.1675E+02  0.7233E+02
    -17.286  0.1679E+02  0.7257E+02
    -17.272  0.1680E+02  0.7280E+02
    -17.258  0.1678E+02  0.7303E+02
    -17.244  0.1674E+02  0.7327E+02
    -17.230  0.1667E+02  0.7350E+02
    -17.216  0.1657E+02  0.7373E+02
    -17.202  0.1645E+02  0.7396E+02
    -17.188  0.1631E+02  0.7419E+02
    -17.174  0.1615E+02  0.7441E+02
    -17.160  0.1598E+02  0.7464E+02
    -17.146  0.1580E+02  0.7486E+02
    -17.132  0.1561E+02  0.7508E+02
    -17.118  0.1543E+02  0.7529E+02
    -17.104  0.1525E+02  0.7550E+02
    -17.090  0.1508E+02  0.7571E+02
    -17.076  0.1492E+02  0.7592E+02
    -17.063  0.1478E+02  0.7613E+02
    -17.049  0.1466E+02  0.7633E+02
    -17.035  0.1456E+02  0.7654E+02
    -17.021  0.1448E+02  0.7674E+02
    -17.007  0.1443E+02  0.7694E+02
    -16.993  0.1441E+02  0.7714E+02
    -16.979  0.1441E+02  0.7734E+02
    -16.965  0.1443E+02  0.7754E+02
    -16.951  0.1449E+02  0.7775E+02
    -16.937  0.1456E+02  0.7795E+02
    -16.923  0.1466E+02  0.7815E+02
    -16.909  0.1478E+02  0.7836E+02
    -16.895  0.1491E+02  0.7857E+02
    -16.881  0.1506E+02  0.7878E+02
    -16.867  0.1521E+02  0.7899E+02
    -16.853  0.1537E+02  0.7920E+02
    -16.839  0.1553E+02  0.7942E+02
    -16.825  0.1568E+02  0.7964E+02
    -16.811  0.1583E+02  0.7986E+02
    -16.797  0.1597E+02  0.8008E+02
    -16.783  0.1610E+02  0.8031E+02
    -16.769  0.1621E+02  0.8053E+02
    -16.756  0.1630E+02  0.8076E+02
    -16.742  0.1637E+02  0.8099E+02
    -16.728  0.1643E+02  0.8122E+02
    -16.714  0.1648E+02  0.8145E+02
    -16.700  0.1650E+02  0.8168E+02
    -16.686  0.1652E+02  0.8191E+02
    -16.672  0.1652E+02  0.8214E+02
    -16.658  0.1652E+02  0.8237E+02
    -16.644  0.1651E+02  0.8260E+02
    -16.630  0.1651E+02  0.8283E+02
    -16.616  0.1650E+02  0.8306E+02
    -16.602  0.1650E+02  0.8329E+02
    -16.588  0.1651E+02  0.8352E+02
    -16.574  0.1652E+02  0.8375E+02
    -16.560  0.1654E+02  0.8399E+02
    -16.546  0.1656E+02  0.8422E+02
    -16.532  0.1659E+02  0.8445E+02
    -16.518  0.1662E+02  0.8468E+02
    -16.504  0.1664E+02  0.8491E+02
    -16.490  0.1666E+02  0.8514E+02
    -16.476  0.1666E+02  0.8538E+02
    -16.462  0.1664E+02  0.8561E+02
    -16.448  0.1659E+02  0.8584E+02
    -16.435  0.1652E+02  0.8607E+02
    -16.421  0.1642E+02  0.8630E+02
    -16.407  0.1628E+02  0.8653E+02
    -16.393  0.1611E+02  0.8675E+02
    -16.379  0.1591E+02  0.8697E+02
    -16.365  0.1567E+02  0.8719E+02
    -16.351  0.1541E+02  0.8741E+02
    -16.337  0.1512E+02  0.8762E+02
    -16.323  0.1482E+02  0.8783E+02
    -16.309  0.1452E+02  0.8803E+02
    -16.295  0.1421E+02  0.8823E+02
    -16.281  0.1391E+02  0.8842E+02
    -16.267  0.1363E+02  0.8861E+02
    -16.253  0.1337E+02  0.8880E+02
    -16.239  0.1315E+02  0.8898E+02
    -16.225  0.1296E+02  0.8916E+02
    -16.211  0.1281E+02  0.8934E+02
    -16.197  0.1271E+02  0.8952E+02
    -16.183  0.1265E+02  0.8970E+02
    -16.169  0.1264E+02  0.8987E+02
    -16.155  0.1267E+02  0.9005E+02
    -16.141  0.1274E+02  0.9023E+02
    -16.127  0.1285E+02  0.9041E+02
    -16.114  0.1299E+02  0.9059E+02
    -16.100  0.1316E+02  0.9077E+02
    -16.086  0.1335E+02  0.9096E+02
    -16.072  0.1355E+02  0.9115E+02
    -16.058  0.1377E+02  0.9134E+02
    -16.044  0.1399E+02  0.9153E+02
    -16.030  0.1421E+02  0.9173E+02
    -16.016  0.1442E+02  0.9193E+02
    -16.002  0.1463E+02  0.9214E+02
    -15.988  0.1483E+02  0.9234E+02
    -15.974  0.1501E+02  0.9255E+02
    -15.960  0.1518E+02  0.9277E+02
    -15.946  0.1534E+02  0.9298E+02
    -15.932  0.1548E+02  0.9320E+02
    -15.918  0.1560E+02  0.9341E+02
    -15.904  0.1571E+02  0.9363E+02
    -15.890  0.1580E+02  0.9385E+02
    -15.876  0.1588E+02  0.9408E+02
    -15.862  0.1594E+02  0.9430E+02
    -15.848  0.1598E+02  0.9452E+02
    -15.834  0.1602E+02  0.9474E+02
    -15.820  0.1603E+02  0.9497E+02
    -15.806  0.1604E+02  0.9519E+02
    -15.793  0.1603E+02  0.9542E+02
    -15.779  0.1601E+02  0.9564E+02
    -15.765  0.1598E+02  0.9586E+02
    -15.751  0.1593E+02  0.9608E+02
    -15.737  0.1588E+02  0.9631E+02
    -15.723  0.1582E+02  0.9653E+02
    -15.709  0.1575E+02  0.9675E+02
    -15.695  0.1568E+02  0.9697E+02
    -15.681  0.1560E+02  0.9718E+02
    -15.667  0.1551E+02  0.9740E+02
    -15.653  0.1543E+02  0.9761E+02
    -15.639  0.1534E+02  0.9783E+02
    -15.625  0.1526E+02  0.9804E+02
    -15.611  0.1518E+02  0.9825E+02
    -15.597  0.1511E+02  0.9846E+02
    -15.583  0.1505E+02  0.9867E+02
    -15.569  0.1499E+02  0.9888E+02
    -15.555  0.1494E+02  0.9909E+02
    -15.541  0.1491E+02  0.9930E+02
    -15.527  0.1488E+02  0.9951E+02
    -15.513  0.1487E+02  0.9972E+02
    -15.499  0.1486E+02  0.9992E+02
    -15.485  0.1487E+02  0.1001E+03
    -15.472  0.1488E+02  0.1003E+03
    -15.458  0.1490E+02  0.1005E+03
    -15.444  0.1493E+02  0.1008E+03
    -15.430  0.1497E+02  0.1010E+03
    -15.416  0.1501E+02  0.1012E+03
    -15.402  0.1505E+02  0.1014E+03
    -15.388  0.1510E+02  0.1016E+03
    -15.374  0.1515E+02  0.1018E+03
    -15.360  0.1520E+02  0.1020E+03
    -15.346  0.1525E+02  0.1022E+03
    -15.332  0.1530E+02  0.1024E+03
    -15.318  0.1535E+02  0.1027E+03
    -15.304  0.1541E+02  0.1029E+03
    -15.290  0.1547E+02  0.1031E+03
    -15.276  0.1552E+02  0.1033E+03
    -15.262  0.1559E+02  0.1035E+03
    -15.248  0.1565E+02  0.1037E+03
    -15.234  0.1573E+02  0.1040E+03
    -15.220  0.1581E+02  0.1042E+03
    -15.206  0.1589E+02  0.1044E+03
    -15.192  0.1599E+02  0.1046E+03
    -15.178  0.1609E+02  0.1049E+03
    -15.164  0.1620E+02  0.1051E+03
    -15.151  0.1632E+02  0.1053E+03
    -15.137  0.1644E+02  0.1055E+03
    -15.123  0.1657E+02  0.1058E+03
    -15.109  0.1670E+02  0.1060E+03
    -15.095  0.1683E+02  0.1062E+03
    -15.081  0.1697E+02  0.1065E+03
    -15.067  0.1710E+02  0.1067E+03
    -15.053  0.1723E+02  0.1069E+03
    -15.039  0.1735E+02  0.1072E+03
    -15.025  0.1746E+02  0.1074E+03
    -15.011  0.1757E+02  0.1077E+03
    -14.997  0.1766E+02  0.1079E+03
    -14.983  0.1773E+02  0.1082E+03
    -14.969  0.1779E+02  0.1084E+03
    -14.955  0.1784E+02  0.1087E+03
    -14.941  0.1786E+02  0.1089E+03
    -14.927  0.1787E+02  0.1092E+03
    -14.913  0.1786E+02  0.1094E+03
    -14.899  0.1784E+02  0.1097E+03
    -14.885  0.1779E+02  0.1099E+03
    -14.871  0.1773E+02  0.1102E+03
    -14.857  0.1766E+02  0.1104E+03
    -14.843  0.1757E+02  0.1107E+03
    -14.830  0.1746E+02  0.1109E+03
    -14.816  0.1735E+02  0.1111E+03
    -14.802  0.1723E+02  0.1114E+03
    -14.788  0.1711E+02  0.1116E+03
    -14.774  0.1699E+02  0.1119E+03
    -14.760  0.1686E+02  0.1121E+03
    -14.746  0.1674E+02  0.1123E+03
    -14.732  0.1663E+02  0.1126E+03
    -14.718  0.1652E+02  0.1128E+03
    -14.704  0.1643E+02  0.1130E+03
    -14.690  0.1635E+02  0.1132E+03
    -14.676  0.1629E+02  0.1135E+03
    -14.662  0.1625E+02  0.1137E+03
    -14.648  0.1622E+02  0.1139E+03
    -14.634  0.1621E+02  0.1142E+03
    -14.620  0.1621E+02  0.1144E+03
    -14.606  0.1624E+02  0.1146E+03
    -14.592  0.1627E+02  0.1148E+03
    -14.578  0.1632E+02  0.1151E+03
    -14.564  0.1638E+02  0.1153E+03
    -14.550  0.1645E+02  0.1155E+03
    -14.536  0.1652E+02  0.1158E+03
    -14.522  0.1659E+02  0.1160E+03
    -14.509  0.1665E+02  0.1162E+03
    -14.495  0.1671E+02  0.1164E+03
    -14.481  0.1677E+02  0.1167E+03
    -14.467  0.1681E+02  0.1169E+03
    -14.453  0.1684E+02  0.1172E+03
    -14.439  0.1686E+02  0.1174E+03
    -14.425  0.1686E+02  0.1176E+03
    -14.411  0.1686E+02  0.1179E+03
    -14.397  0.1683E+02  0.1181E+03
    -14.383  0.1680E+02  0.1183E+03
    -14.369  0.1675E+02  0.1186E+03
    -14.355  0.1669E+02  0.1188E+03
    -14.341  0.1662E+02  0.1190E+03
    -14.327  0.1655E+02  0.1193E+03
    -14.313  0.1646E+02  0.1195E+03
    -14.299  0.1637E+02  0.1197E+03
    -14.285  0.1627E+02  0.1199E+03
    -14.271  0.1616E+02  0.1202E+03
    -14.257  0.1605E+02  0.1204E+03
    -14.243  0.1593E+02  0.1206E+03
    -14.229  0.1580E+02  0.1208E+03
    -14.215  0.1567E+02  0.1211E+03
    -14.201  0.1554E+02  0.1213E+03
    -14.188  0.1540E+02  0.1215E+03
    -14.174  0.1526E+02  0.1217E+03
    -14.160  0.1512E+02  0.1219E+03
    -14.146  0.1498E+02  0.1221E+03
    -14.132  0.1484E+02  0.1223E+03
    -14.118  0.1470E+02  0.1225E+03
    -14.104  0.1457E+02  0.1227E+03
    -14.090  0.1445E+02  0.1229E+03
    -14.076  0.1434E+02  0.1231E+03
    -14.062  0.1424E+02  0.1233E+03
    -14.048  0.1416E+02  0.1235E+03
    -14.034  0.1410E+02  0.1237E+03
    -14.020  0.1405E+02  0.1239E+03
    -14.006  0.1403E+02  0.1241E+03
    -13.992  0.1402E+02  0.1243E+03
    -13.978  0.1404E+02  0.1245E+03
    -13.964  0.1408E+02  0.1247E+03
    -13.950  0.1414E+02  0.1249E+03
    -13.936  0.1421E+02  0.1251E+03
    -13.922  0.1431E+02  0.1253E+03
    -13.908  0.1441E+02  0.1255E+03
    -13.894  0.1453E+02  0.1257E+03
    -13.880  0.1466E+02  0.1259E+03
    -13.867  0.1480E+02  0.1261E+03
    -13.853  0.1494E+02  0.1263E+03
    -13.839  0.1508E+02  0.1265E+03
    -13.825  0.1522E+02  0.1268E+03
    -13.811  0.1536E+02  0.1270E+03
    -13.797  0.1549E+02  0.1272E+03
    -13.783  0.1561E+02  0.1274E+03
    -13.769  0.1573E+02  0.1276E+03
    -13.755  0.1583E+02  0.1278E+03
    -13.741  0.1592E+02  0.1281E+03
    -13.727  0.1600E+02  0.1283E+03
    -13.713  0.1607E+02  0.1285E+03
    -13.699  0.1612E+02  0.1287E+03
    -13.685  0.1617E+02  0.1290E+03
    -13.671  0.1620E+02  0.1292E+03
    -13.657  0.1623E+02  0.1294E+03
    -13.643  0.1625E+02  0.1296E+03
    -13.629  0.1627E+02  0.1299E+03
    -13.615  0.1629E+02  0.1301E+03
    -13.601  0.1631E+02  0.1303E+03
    -13.587  0.1634E+02  0.1305E+03
    -13.573  0.1637E+02  0.1308E+03
    -13.559  0.1641E+02  0.1310E+03
    -13.546  0.1646E+02  0.1312E+03
    -13.532  0.1653E+02  0.1315E+03
    -13.518  0.1660E+02  0.1317E+03
    -13.504  0.1669E+02  0.1319E+03
    -13.490  0.1679E+02  0.1322E+03
    -13.476  0.1691E+02  0.1324E+03
    -13.462  0.1704E+02  0.1326E+03
    -13.448  0.1718E+02  0.1329E+03
    -13.434  0.1733E+02  0.1331E+03
    -13.420  0.1748E+02  0.1334E+03
    -13.406  0.1764E+02  0.1336E+03
    -13.392  0.1781E+02  0.1339E+03
    -13.378  0.1797E+02  0.1341E+03
    -13.364  0.1813E+02  0.1344E+03
    -13.350  0.1828E+02  0.1346E+03
    -13.336  0.1843E+02  0.1349E+03
    -13.322  0.1856E+02  0.1351E+03
    -13.308  0.1868E+02  0.1354E+03
    -13.294  0.1879E+02  0.1357E+03
    -13.280  0.1888E+02  0.1359E+03
    -13.266  0.1895E+02  0.1362E+03
    -13.252  0.1901E+02  0.1365E+03
    -13.238  0.1905E+02  0.1367E+03
    -13.225  0.1906E+02  0.1370E+03
    -13.211  0.1906E+02  0.1372E+03
    -13.197  0.1904E+02  0.1375E+03
    -13.183  0.1900E+02  0.1378E+03
    -13.169  0.1895E+02  0.1380E+03
    -13.155  0.1888E+02  0.1383E+03
    -13.141  0.1879E+02  0.1386E+03
    -13.127  0.1869E+02  0.1388E+03
    -13.113  0.1858E+02  0.1391E+03
    -13.099  0.1845E+02  0.1393E+03
    -13.085  0.1832E+02  0.1396E+03
    -13.071  0.1818E+02  0.1399E+03
    -13.057  0.1803E+02  0.1401E+03
    -13.043  0.1788E+02  0.1404E+03
    -13.029  0.1772E+02  0.1406E+03
    -13.015  0.1756E+02  0.1409E+03
    -13.001  0.1740E+02  0.1411E+03
    -12.987  0.1723E+02  0.1413E+03
    -12.973  0.1707E+02  0.1416E+03
    -12.959  0.1691E+02  0.1418E+03
    -12.945  0.1675E+02  0.1420E+03
    -12.931  0.1659E+02  0.1423E+03
    -12.918  0.1643E+02  0.1425E+03
    -12.904  0.1628E+02  0.1427E+03
    -12.890  0.1613E+02  0.1430E+03
    -12.876  0.1597E+02  0.1432E+03
    -12.862  0.1583E+02  0.1434E+03
    -12.848  0.1568E+02  0.1436E+03
    -12.834  0.1554E+02  0.1438E+03
    -12.820  0.1541E+02  0.1441E+03
    -12.806  0.1529E+02  0.1443E+03
    -12.792  0.1517E+02  0.1445E+03
    -12.778  0.1507E+02  0.1447E+03
    -12.764  0.1498E+02  0.1449E+03
    -12.750  0.1492E+02  0.1451E+03
    -12.736  0.1488E+02  0.1453E+03
    -12.722  0.1486E+02  0.1455E+03
    -12.708  0.1487E+02  0.1457E+03
    -12.694  0.1491E+02  0.1459E+03
    -12.680  0.1498E+02  0.1461E+03
    -12.666  0.1509E+02  0.1464E+03
    -12.652  0.1524E+02  0.1466E+03
    -12.638  0.1542E+02  0.1468E+03
    -12.624  0.1564E+02  0.1470E+03
    -12.610  0.1589E+02  0.1472E+03