  94  94   0   0
  0.2675112E+02  0.1704000E-08  0.1475707E-08  0.1000000E-08  0.5000000E-15
  1.000000000000000E-004
  CAR 
 unknown system                          
      6.55111227    -22.86888044 2000     -1.48376521      1.00000000
    -22.869  0.0000E+00  0.0000E+00
    -22.854  0.0000E+00  0.0000E+00
    -22.839  0.0000E+00  0.0000E+00
    -22.825  0.0000E+00  0.0000E+00
    -22.810  0.0000E+00  0.0000E+00
    -22.795  0.0000E+00  0.0000E+00
    -22.781  0.0000E+00  0.0000E+00
    -22.766  0.0000E+00  0.0000E+00
    -22.751  0.0000E+00  0.0000E+00
    -22.736  0.0000E+00  0.0000E+00
    -22.722  0.0000E+00  0.0000E+00
    -22.707  0.0000E+00  0.0000E+00
    -22.692  0.0000E+00  0.0000E+00
    -22.678  0.0000E+00  0.0000E+00
    -22.663  0.0000E+00  0.0000E+00
    -22.648  0.0000E+00  0.0000E+00
    -22.633  0.0000E+00  0.0000E+00
    -22.619  0.0000E+00  0.0000E+00
    -22.604  0.0000E+00  0.0000E+00
    -22.589  0.0000E+00  0.0000E+00
    -22.575  0.0000E+00  0.0000E+00
    -22.560  0.0000E+00  0.0000E+00
    -22.545  0.0000E+00  0.0000E+00
    -22.530  0.0000E+00  0.0000E+00
    -22.516  0.0000E+00  0.0000E+00
    -22.501  0.0000E+00  0.0000E+00
    -22.486  0.0000E+00  0.0000E+00
    -22.472  0.0000E+00  0.0000E+00
    -22.457  0.0000E+00  0.0000E+00
    -22.442  0.0000E+00  0.0000E+00
    -22.427  0.0000E+00  0.0000E+00
    -22.413  0.0000E+00  0.0000E+00
    -22.398  0.0000E+00  0.0000E+00
    -22.383  0.0000E+00  0.0000E+00
    -22.368  0.0000E+00  0.0000E+00
    -22.354  0.0000E+00  0.0000E+00
    -22.339  0.0000E+00  0.0000E+00
    -22.324  0.0000E+00  0.0000E+00
    -22.310  0.0000E+00  0.0000E+00
    -22.295  0.0000E+00  0.0000E+00
    -22.280  0.0000E+00  0.0000E+00
    -22.265  0.0000E+00  0.0000E+00
    -22.251  0.0000E+00  0.0000E+00
    -22.236  0.0000E+00  0.0000E+00
    -22.221  0.0000E+00  0.0000E+00
    -22.207  0.0000E+00  0.0000E+00
    -22.192  0.0000E+00  0.0000E+00
    -22.177  0.0000E+00  0.0000E+00
    -22.162  0.0000E+00  0.0000E+00
    -22.148  0.0000E+00  0.0000E+00
    -22.133  0.0000E+00  0.0000E+00
    -22.118  0.0000E+00  0.0000E+00
    -22.104  0.0000E+00  0.0000E+00
    -22.089  0.0000E+00  0.0000E+00
    -22.074  0.0000E+00  0.0000E+00
    -22.059  0.0000E+00  0.0000E+00
    -22.045  0.8382E-15  0.1234E-16
    -22.030  0.8382E-15  0.2467E-16
    -22.015  0.2515E-14  0.6168E-16
    -22.001  0.8382E-14  0.1850E-15
    -21.986  0.1593E-13  0.4194E-15
    -21.971  0.3520E-13  0.9375E-15
    -21.956  0.8969E-13  0.2257E-14
    -21.942  0.1911E-12  0.5070E-14
    -21.927  0.4283E-12  0.1137E-13
    -21.912  0.9455E-12  0.2529E-13
    -21.898  0.2051E-11  0.5547E-13
    -21.883  0.4420E-11  0.1205E-12
    -21.868  0.9414E-11  0.2591E-12
    -21.853  0.1984E-10  0.5511E-12
    -21.839  0.4140E-10  0.1160E-11
    -21.824  0.8546E-10  0.2418E-11
    -21.809  0.1746E-09  0.4988E-11
    -21.795  0.3529E-09  0.1018E-10
    -21.780  0.7059E-09  0.2057E-10
    -21.765  0.1397E-08  0.4113E-10
    -21.750  0.2737E-08  0.8141E-10
    -21.736  0.5305E-08  0.1595E-09
    -21.721  0.1018E-07  0.3092E-09
    -21.706  0.1932E-07  0.5935E-09
    -21.691  0.3628E-07  0.1128E-08
    -21.677  0.6745E-07  0.2120E-08
    -21.662  0.1241E-06  0.3947E-08
    -21.647  0.2259E-06  0.7272E-08
    -21.633  0.4071E-06  0.1326E-07
    -21.618  0.7259E-06  0.2395E-07
    -21.603  0.1281E-05  0.4280E-07
    -21.588  0.2237E-05  0.7572E-07
    -21.574  0.3866E-05  0.1326E-06
    -21.559  0.6614E-05  0.2300E-06
    -21.544  0.1120E-04  0.3948E-06
    -21.530  0.1876E-04  0.6709E-06
    -21.515  0.3111E-04  0.1129E-05
    -21.500  0.5106E-04  0.1880E-05
    -21.485  0.8294E-04  0.3101E-05
    -21.471  0.1334E-03  0.5064E-05
    -21.456  0.2122E-03  0.8187E-05
    -21.441  0.3342E-03  0.1311E-04
    -21.427  0.5211E-03  0.2077E-04
    -21.412  0.8040E-03  0.3261E-04
    -21.397  0.1228E-02  0.5068E-04
    -21.382  0.1857E-02  0.7801E-04
    -21.368  0.2778E-02  0.1189E-03
    -21.353  0.4116E-02  0.1795E-03
    -21.338  0.6035E-02  0.2683E-03
    -21.324  0.8760E-02  0.3972E-03
    -21.309  0.1259E-01  0.5825E-03
    -21.294  0.1791E-01  0.8460E-03
    -21.279  0.2522E-01  0.1217E-02
    -21.265  0.3516E-01  0.1735E-02
    -21.250  0.4852E-01  0.2449E-02
    -21.235  0.6631E-01  0.3425E-02
    -21.221  0.8972E-01  0.4745E-02
    -21.206  0.1202E+00  0.6514E-02
    -21.191  0.1595E+00  0.8861E-02
    -21.176  0.2094E+00  0.1194E-01
    -21.162  0.2724E+00  0.1595E-01
    -21.147  0.3509E+00  0.2112E-01
    -21.132  0.4477E+00  0.2771E-01
    -21.118  0.5657E+00  0.3603E-01
    -21.103  0.7080E+00  0.4645E-01
    -21.088  0.8777E+00  0.5937E-01
    -21.073  0.1078E+01  0.7523E-01
    -21.059  0.1311E+01  0.9453E-01
    -21.044  0.1581E+01  0.1178E+00
    -21.029  0.1888E+01  0.1456E+00
    -21.014  0.2235E+01  0.1785E+00
    -21.000  0.2622E+01  0.2171E+00
    -20.985  0.3049E+01  0.2619E+00
    -20.970  0.3515E+01  0.3137E+00
    -20.956  0.4017E+01  0.3728E+00
    -20.941  0.4553E+01  0.4398E+00
    -20.926  0.5118E+01  0.5151E+00
    -20.911  0.5707E+01  0.5991E+00
    -20.897  0.6313E+01  0.6920E+00
    -20.882  0.6932E+01  0.7940E+00
    -20.867  0.7554E+01  0.9052E+00
    -20.853  0.8173E+01  0.1025E+01
    -20.838  0.8782E+01  0.1155E+01
    -20.823  0.9374E+01  0.1293E+01
    -20.808  0.9943E+01  0.1439E+01
    -20.794  0.1048E+02  0.1593E+01
    -20.779  0.1099E+02  0.1755E+01
    -20.764  0.1146E+02  0.1924E+01
    -20.750  0.1189E+02  0.2099E+01
    -20.735  0.1227E+02  0.2279E+01
    -20.720  0.1262E+02  0.2465E+01
    -20.705  0.1293E+02  0.2655E+01
    -20.691  0.1320E+02  0.2849E+01
    -20.676  0.1343E+02  0.3047E+01
    -20.661  0.1363E+02  0.3248E+01
    -20.647  0.1380E+02  0.3451E+01
    -20.632  0.1394E+02  0.3656E+01
    -20.617  0.1407E+02  0.3863E+01
    -20.602  0.1417E+02  0.4072E+01
    -20.588  0.1425E+02  0.4281E+01
    -20.573  0.1432E+02  0.4492E+01
    -20.558  0.1438E+02  0.4704E+01
    -20.544  0.1443E+02  0.4916E+01
    -20.529  0.1447E+02  0.5129E+01
    -20.514  0.1449E+02  0.5342E+01
    -20.499  0.1452E+02  0.5556E+01
    -20.485  0.1453E+02  0.5770E+01
    -20.470  0.1454E+02  0.5984E+01
    -20.455  0.1453E+02  0.6198E+01
    -20.441  0.1452E+02  0.6411E+01
    -20.426  0.1451E+02  0.6625E+01
    -20.411  0.1449E+02  0.6838E+01
    -20.396  0.1446E+02  0.7051E+01
    -20.382  0.1442E+02  0.7263E+01
    -20.367  0.1438E+02  0.7475E+01
    -20.352  0.1434E+02  0.7686E+01
    -20.337  0.1430E+02  0.7896E+01
    -20.323  0.1426E+02  0.8106E+01
    -20.308  0.1421E+02  0.8315E+01
    -20.293  0.1417E+02  0.8524E+01
    -20.279  0.1414E+02  0.8732E+01
    -20.264  0.1411E+02  0.8940E+01
    -20.249  0.1408E+02  0.9147E+01
    -20.234  0.1407E+02  0.9354E+01
    -20.220  0.1406E+02  0.9561E+01
    -20.205  0.1406E+02  0.9768E+01
    -20.190  0.1407E+02  0.9975E+01
    -20.176  0.1408E+02  0.1018E+02
    -20.161  0.1411E+02  0.1039E+02
    -20.146  0.1414E+02  0.1060E+02
    -20.131  0.1419E+02  0.1081E+02
    -20.117  0.1424E+02  0.1102E+02
    -20.102  0.1430E+02  0.1123E+02
    -20.087  0.1437E+02  0.1144E+02
    -20.073  0.1444E+02  0.1165E+02
    -20.058  0.1452E+02  0.1186E+02
    -20.043  0.1460E+02  0.1208E+02
    -20.028  0.1469E+02  0.1230E+02
    -20.014  0.1477E+02  0.1251E+02
    -19.999  0.1485E+02  0.1273E+02
    -19.984  0.1492E+02  0.1295E+02
    -19.970  0.1499E+02  0.1317E+02
    -19.955  0.1505E+02  0.1339E+02
    -19.940  0.1509E+02  0.1362E+02
    -19.925  0.1513E+02  0.1384E+02
    -19.911  0.1515E+02  0.1406E+02
    -19.896  0.1515E+02  0.1428E+02
    -19.881  0.1514E+02  0.1451E+02
    -19.867  0.1511E+02  0.1473E+02
    -19.852  0.1506E+02  0.1495E+02
    -19.837  0.1500E+02  0.1517E+02
    -19.822  0.1492E+02  0.1539E+02
    -19.808  0.1484E+02  0.1561E+02
    -19.793  0.1474E+02  0.1583E+02
    -19.778  0.1464E+02  0.1604E+02
    -19.764  0.1452E+02  0.1626E+02
    -19.749  0.1441E+02  0.1647E+02
    -19.734  0.1429E+02  0.1668E+02
    -19.719  0.1417E+02  0.1689E+02
    -19.705  0.1405E+02  0.1709E+02
    -19.690  0.1394E+02  0.1730E+02
    -19.675  0.1383E+02  0.1750E+02
    -19.660  0.1374E+02  0.1770E+02
    -19.646  0.1366E+02  0.1790E+02
    -19.631  0.1360E+02  0.1811E+02
    -19.616  0.1357E+02  0.1830E+02
    -19.602  0.1356E+02  0.1850E+02
    -19.587  0.1357E+02  0.1870E+02
    -19.572  0.1363E+02  0.1890E+02
    -19.557  0.1371E+02  0.1911E+02
    -19.543  0.1383E+02  0.1931E+02
    -19.528  0.1399E+02  0.1952E+02
    -19.513  0.1418E+02  0.1972E+02
    -19.499  0.1440E+02  0.1994E+02
    -19.484  0.1464E+02  0.2015E+02
    -19.469  0.1490E+02  0.2037E+02
    -19.454  0.1517E+02  0.2059E+02
    -19.440  0.1545E+02  0.2082E+02
    -19.425  0.1571E+02  0.2105E+02
    -19.410  0.1595E+02  0.2129E+02
    -19.396  0.1617E+02  0.2153E+02
    -19.381  0.1634E+02  0.2177E+02
    -19.366  0.1647E+02  0.2201E+02
    -19.351  0.1654E+02  0.2225E+02
    -19.337  0.1656E+02  0.2250E+02
    -19.322  0.1650E+02  0.2274E+02
    -19.307  0.1639E+02  0.2298E+02
    -19.293  0.1621E+02  0.2322E+02
    -19.278  0.1597E+02  0.2345E+02
    -19.263  0.1569E+02  0.2368E+02
    -19.248  0.1535E+02  0.2391E+02
    -19.234  0.1499E+02  0.2413E+02
    -19.219  0.1460E+02  0.2435E+02
    -19.204  0.1421E+02  0.2455E+02
    -19.190  0.1382E+02  0.2476E+02
    -19.175  0.1345E+02  0.2496E+02
    -19.160  0.1311E+02  0.2515E+02
    -19.145  0.1282E+02  0.2534E+02
    -19.131  0.1259E+02  0.2552E+02
    -19.116  0.1242E+02  0.2571E+02
    -19.101  0.1233E+02  0.2589E+02
    -19.087  0.1230E+02  0.2607E+02
    -19.072  0.1235E+02  0.2625E+02
    -19.057  0.1247E+02  0.2643E+02
    -19.042  0.1265E+02  0.2662E+02
    -19.028  0.1289E+02  0.2681E+02
    -19.013  0.1318E+02  0.2700E+02
    -18.998  0.1350E+02  0.2720E+02
    -18.983  0.1384E+02  0.2741E+02
    -18.969  0.1419E+02  0.2761E+02
    -18.954  0.1454E+02  0.2783E+02
    -18.939  0.1487E+02  0.2805E+02
    -18.925  0.1517E+02  0.2827E+02
    -18.910  0.1544E+02  0.2850E+02
    -18.895  0.1566E+02  0.2873E+02
    -18.880  0.1584E+02  0.2896E+02
    -18.866  0.1597E+02  0.2920E+02
    -18.851  0.1605E+02  0.2943E+02
    -18.836  0.1608E+02  0.2967E+02
    -18.822  0.1607E+02  0.2991E+02
    -18.807  0.1602E+02  0.3014E+02
    -18.792  0.1594E+02  0.3038E+02
    -18.777  0.1584E+02  0.3061E+02
    -18.763  0.1572E+02  0.3084E+02
    -18.748  0.1558E+02  0.3107E+02
    -18.733  0.1544E+02  0.3130E+02
    -18.719  0.1530E+02  0.3152E+02
    -18.704  0.1517E+02  0.3175E+02
    -18.689  0.1504E+02  0.3197E+02
    -18.674  0.1492E+02  0.3219E+02
    -18.660  0.1482E+02  0.3240E+02
    -18.645  0.1473E+02  0.3262E+02
    -18.630  0.1465E+02  0.3284E+02
    -18.616  0.1459E+02  0.3305E+02
    -18.601  0.1453E+02  0.3327E+02
    -18.586  0.1447E+02  0.3348E+02
    -18.571  0.1442E+02  0.3369E+02
    -18.557  0.1437E+02  0.3390E+02
    -18.542  0.1432E+02  0.3411E+02
    -18.527  0.1426E+02  0.3432E+02
    -18.513  0.1420E+02  0.3453E+02
    -18.498  0.1413E+02  0.3474E+02
    -18.483  0.1406E+02  0.3495E+02
    -18.468  0.1398E+02  0.3515E+02
    -18.454  0.1390E+02  0.3536E+02
    -18.439  0.1382E+02  0.3556E+02
    -18.424  0.1376E+02  0.3576E+02
    -18.410  0.1370E+02  0.3596E+02
    -18.395  0.1367E+02  0.3617E+02
    -18.380  0.1366E+02  0.3637E+02
    -18.365  0.1368E+02  0.3657E+02
    -18.351  0.1373E+02  0.3677E+02
    -18.336  0.1383E+02  0.3697E+02
    -18.321  0.1396E+02  0.3718E+02
    -18.307  0.1413E+02  0.3739E+02
    -18.292  0.1435E+02  0.3760E+02
    -18.277  0.1460E+02  0.3781E+02
    -18.262  0.1489E+02  0.3803E+02
    -18.248  0.1520E+02  0.3826E+02
    -18.233  0.1554E+02  0.3848E+02
    -18.218  0.1589E+02  0.3872E+02
    -18.203  0.1623E+02  0.3896E+02
    -18.189  0.1657E+02  0.3920E+02
    -18.174  0.1690E+02  0.3945E+02
    -18.159  0.1719E+02  0.3970E+02
    -18.145  0.1744E+02  0.3996E+02
    -18.130  0.1764E+02  0.4022E+02
    -18.115  0.1779E+02  0.4048E+02
    -18.100  0.1789E+02  0.4074E+02
    -18.086  0.1791E+02  0.4101E+02
    -18.071  0.1788E+02  0.4127E+02
    -18.056  0.1777E+02  0.4153E+02
    -18.042  0.1760E+02  0.4179E+02
    -18.027  0.1738E+02  0.4205E+02
    -18.012  0.1710E+02  0.4230E+02
    -17.997  0.1676E+02  0.4255E+02
    -17.983  0.1639E+02  0.4279E+02
    -17.968  0.1598E+02  0.4302E+02
    -17.953  0.1555E+02  0.4325E+02
    -17.939  0.1510E+02  0.4347E+02
    -17.924  0.1464E+02  0.4369E+02
    -17.909  0.1418E+02  0.4390E+02
    -17.894  0.1373E+02  0.4410E+02
    -17.880  0.1331E+02  0.4430E+02
    -17.865  0.1291E+02  0.4449E+02
    -17.850  0.1255E+02  0.4467E+02
    -17.836  0.1224E+02  0.4485E+02
    -17.821  0.1199E+02  0.4503E+02
    -17.806  0.1180E+02  0.4520E+02
    -17.791  0.1168E+02  0.4537E+02
    -17.777  0.1163E+02  0.4554E+02
    -17.762  0.1166E+02  0.4572E+02
    -17.747  0.1176E+02  0.4589E+02
    -17.733  0.1195E+02  0.4606E+02
    -17.718  0.1220E+02  0.4624E+02
    -17.703  0.1252E+02  0.4643E+02
    -17.688  0.1291E+02  0.4662E+02
    -17.674  0.1334E+02  0.4681E+02
    -17.659  0.1382E+02  0.4702E+02
    -17.644  0.1432E+02  0.4723E+02
    -17.630  0.1484E+02  0.4745E+02
    -17.615  0.1536E+02  0.4767E+02
    -17.600  0.1586E+02  0.4791E+02
    -17.585  0.1634E+02  0.4815E+02
    -17.571  0.1678E+02  0.4839E+02
    -17.556  0.1716E+02  0.4865E+02
    -17.541  0.1749E+02  0.4890E+02
    -17.526  0.1775E+02  0.4917E+02
    -17.512  0.1795E+02  0.4943E+02
    -17.497  0.1807E+02  0.4970E+02
    -17.482  0.1812E+02  0.4996E+02
    -17.468  0.1811E+02  0.5023E+02
    -17.453  0.1803E+02  0.5049E+02
    -17.438  0.1790E+02  0.5076E+02
    -17.423  0.1772E+02  0.5102E+02
    -17.409  0.1750E+02  0.5128E+02
    -17.394  0.1726E+02  0.5153E+02
    -17.379  0.1699E+02  0.5178E+02
    -17.365  0.1672E+02  0.5203E+02
    -17.350  0.1645E+02  0.5227E+02
    -17.335  0.1619E+02  0.5251E+02
    -17.320  0.1593E+02  0.5274E+02
    -17.306  0.1570E+02  0.5297E+02
    -17.291  0.1548E+02  0.5320E+02
    -17.276  0.1528E+02  0.5342E+02
    -17.262  0.1511E+02  0.5365E+02
    -17.247  0.1495E+02  0.5387E+02
    -17.232  0.1482E+02  0.5408E+02
    -17.217  0.1469E+02  0.5430E+02
    -17.203  0.1459E+02  0.5452E+02
    -17.188  0.1449E+02  0.5473E+02
    -17.173  0.1441E+02  0.5494E+02
    -17.159  0.1434E+02  0.5515E+02
    -17.144  0.1428E+02  0.5536E+02
    -17.129  0.1423E+02  0.5557E+02
    -17.114  0.1419E+02  0.5578E+02
    -17.100  0.1417E+02  0.5599E+02
    -17.085  0.1417E+02  0.5620E+02
    -17.070  0.1419E+02  0.5641E+02
    -17.056  0.1423E+02  0.5662E+02
    -17.041  0.1429E+02  0.5683E+02
    -17.026  0.1438E+02  0.5704E+02
    -17.011  0.1448E+02  0.5725E+02
    -16.997  0.1460E+02  0.5747E+02
    -16.982  0.1474E+02  0.5768E+02
    -16.967  0.1488E+02  0.5790E+02
    -16.953  0.1502E+02  0.5812E+02
    -16.938  0.1516E+02  0.5835E+02
    -16.923  0.1529E+02  0.5857E+02
    -16.908  0.1540E+02  0.5880E+02
    -16.894  0.1548E+02  0.5903E+02
    -16.879  0.1555E+02  0.5925E+02
    -16.864  0.1558E+02  0.5948E+02
    -16.849  0.1558E+02  0.5971E+02
    -16.835  0.1555E+02  0.5994E+02
    -16.820  0.1549E+02  0.6017E+02
    -16.805  0.1541E+02  0.6040E+02
    -16.791  0.1530E+02  0.6062E+02
    -16.776  0.1519E+02  0.6084E+02
    -16.761  0.1507E+02  0.6107E+02
    -16.746  0.1495E+02  0.6129E+02
    -16.732  0.1485E+02  0.6151E+02
    -16.717  0.1476E+02  0.6172E+02
    -16.702  0.1469E+02  0.6194E+02
    -16.688  0.1466E+02  0.6215E+02
    -16.673  0.1465E+02  0.6237E+02
    -16.658  0.1469E+02  0.6259E+02
    -16.643  0.1476E+02  0.6280E+02
    -16.629  0.1488E+02  0.6302E+02
    -16.614  0.1503E+02  0.6324E+02
    -16.599  0.1521E+02  0.6347E+02
    -16.585  0.1542E+02  0.6369E+02
    -16.570  0.1566E+02  0.6392E+02
    -16.555  0.1591E+02  0.6416E+02
    -16.540  0.1617E+02  0.6440E+02
    -16.526  0.1644E+02  0.6464E+02
    -16.511  0.1671E+02  0.6488E+02
    -16.496  0.1697E+02  0.6513E+02
    -16.482  0.1721E+02  0.6539E+02
    -16.467  0.1744E+02  0.6564E+02
    -16.452  0.1764E+02  0.6590E+02
    -16.437  0.1781E+02  0.6617E+02
    -16.423  0.1795E+02  0.6643E+02
    -16.408  0.1806E+02  0.6670E+02
    -16.393  0.1814E+02  0.6696E+02
    -16.379  0.1818E+02  0.6723E+02
    -16.364  0.1820E+02  0.6750E+02
    -16.349  0.1819E+02  0.6777E+02
    -16.334  0.1815E+02  0.6803E+02
    -16.320  0.1809E+02  0.6830E+02
    -16.305  0.1801E+02  0.6856E+02
    -16.290  0.1791E+02  0.6883E+02
    -16.276  0.1780E+02  0.6909E+02
    -16.261  0.1768E+02  0.6935E+02
    -16.246  0.1755E+02  0.6961E+02
    -16.231  0.1741E+02  0.6986E+02
    -16.217  0.1727E+02  0.7012E+02
    -16.202  0.1714E+02  0.7037E+02
    -16.187  0.1700E+02  0.7062E+02
    -16.172  0.1687E+02  0.7087E+02
    -16.158  0.1674E+02  0.7112E+02
    -16.143  0.1662E+02  0.7136E+02
    -16.128  0.1651E+02  0.7160E+02
    -16.114  0.1641E+02  0.7185E+02
    -16.099  0.1631E+02  0.7209E+02
    -16.084  0.1623E+02  0.7232E+02
    -16.069  0.1617E+02  0.7256E+02
    -16.055  0.1612E+02  0.7280E+02
    -16.040  0.1608E+02  0.7304E+02
    -16.025  0.1607E+02  0.7327E+02
    -16.011  0.1609E+02  0.7351E+02
    -15.996  0.1612E+02  0.7375E+02
    -15.981  0.1619E+02  0.7399E+02
    -15.966  0.1629E+02  0.7422E+02
    -15.952  0.1642E+02  0.7447E+02
    -15.937  0.1658E+02  0.7471E+02
    -15.922  0.1677E+02  0.7496E+02
    -15.908  0.1698E+02  0.7521E+02
    -15.893  0.1722E+02  0.7546E+02
    -15.878  0.1747E+02  0.7572E+02
    -15.863  0.1773E+02  0.7598E+02
    -15.849  0.1799E+02  0.7624E+02
    -15.834  0.1825E+02  0.7651E+02
    -15.819  0.1849E+02  0.7678E+02
    -15.805  0.1872E+02  0.7706E+02
    -15.790  0.1891E+02  0.7734E+02
    -15.775  0.1908E+02  0.7762E+02
    -15.760  0.1921E+02  0.7790E+02
    -15.746  0.1930E+02  0.7819E+02
    -15.731  0.1935E+02  0.7847E+02
    -15.716  0.1936E+02  0.7875E+02
    -15.702  0.1933E+02  0.7904E+02
    -15.687  0.1927E+02  0.7932E+02
    -15.672  0.1917E+02  0.7961E+02
    -15.657  0.1905E+02  0.7989E+02
    -15.643  0.1890E+02  0.8016E+02
    -15.628  0.1874E+02  0.8044E+02
    -15.613  0.1855E+02  0.8071E+02
    -15.599  0.1836E+02  0.8098E+02
    -15.584  0.1815E+02  0.8125E+02
    -15.569  0.1793E+02  0.8151E+02
    -15.554  0.1770E+02  0.8177E+02
    -15.540  0.1746E+02  0.8203E+02
    -15.525  0.1720E+02  0.8228E+02
    -15.510  0.1694E+02  0.8253E+02
    -15.495  0.1666E+02  0.8278E+02
    -15.481  0.1636E+02  0.8302E+02
    -15.466  0.1605E+02  0.8326E+02
    -15.451  0.1572E+02  0.8349E+02
    -15.437  0.1538E+02  0.8371E+02
    -15.422  0.1502E+02  0.8393E+02
    -15.407  0.1465E+02  0.8415E+02
    -15.392  0.1427E+02  0.8436E+02
    -15.378  0.1389E+02  0.8456E+02
    -15.363  0.1350E+02  0.8476E+02
    -15.348  0.1312E+02  0.8496E+02
    -15.334  0.1274E+02  0.8514E+02
    -15.319  0.1238E+02  0.8533E+02
    -15.304  0.1203E+02  0.8550E+02
    -15.289  0.1171E+02  0.8567E+02
    -15.275  0.1141E+02  0.8584E+02
    -15.260  0.1113E+02  0.8601E+02
    -15.245  0.1089E+02  0.8617E+02
    -15.231  0.1069E+02  0.8632E+02
    -15.216  0.1052E+02  0.8648E+02
    -15.201  0.1039E+02  0.8663E+02
    -15.186  0.1030E+02  0.8678E+02
    -15.172  0.1024E+02  0.8693E+02
    -15.157  0.1022E+02  0.8709E+02
    -15.142  0.1024E+02  0.8724E+02
    -15.128  0.1028E+02  0.8739E+02
    -15.113  0.1035E+02  0.8754E+02
    -15.098  0.1044E+02  0.8769E+02
    -15.083  0.1055E+02  0.8785E+02
    -15.069  0.1067E+02  0.8801E+02
    -15.054  0.1079E+02  0.8816E+02
    -15.039  0.1091E+02  0.8832E+02
    -15.025  0.1103E+02  0.8849E+02
    -15.010  0.1114E+02  0.8865E+02
    -14.995  0.1122E+02  0.8882E+02
    -14.980  0.1129E+02  0.8898E+02
    -14.966  0.1133E+02  0.8915E+02
    -14.951  0.1134E+02  0.8932E+02
    -14.936  0.1131E+02  0.8948E+02
    -14.922  0.1126E+02  0.8965E+02
    -14.907  0.1117E+02  0.8981E+02
    -14.892  0.1105E+02  0.8998E+02
    -14.877  0.1091E+02  0.9014E+02
    -14.863  0.1075E+02  0.9029E+02
    -14.848  0.1057E+02  0.9045E+02
    -14.833  0.1039E+02  0.9060E+02
    -14.818  0.1021E+02  0.9075E+02
    -14.804  0.1003E+02  0.9090E+02
    -14.789  0.9869E+01  0.9105E+02
    -14.774  0.9734E+01  0.9119E+02
    -14.760  0.9629E+01  0.9133E+02
    -14.745  0.9562E+01  0.9147E+02
    -14.730  0.9537E+01  0.9161E+02
    -14.715  0.9557E+01  0.9175E+02
    -14.701  0.9623E+01  0.9189E+02
    -14.686  0.9734E+01  0.9204E+02
    -14.671  0.9887E+01  0.9218E+02
    -14.657  0.1008E+02  0.9233E+02
    -14.642  0.1030E+02  0.9248E+02
    -14.627  0.1055E+02  0.9264E+02
    -14.612  0.1081E+02  0.9280E+02
    -14.598  0.1108E+02  0.9296E+02
    -14.583  0.1135E+02  0.9313E+02
    -14.568  0.1161E+02  0.9330E+02
    -14.554  0.1185E+02  0.9347E+02
    -14.539  0.1207E+02  0.9365E+02
    -14.524  0.1226E+02  0.9383E+02
    -14.509  0.1242E+02  0.9401E+02
    -14.495  0.1256E+02  0.9420E+02
    -14.480  0.1267E+02  0.9438E+02
    -14.465  0.1275E+02  0.9457E+02
    -14.451  0.1282E+02  0.9476E+02
    -14.436  0.1287E+02  0.9495E+02
    -14.421  0.1292E+02  0.9514E+02
    -14.406  0.1297E+02  0.9533E+02
    -14.392  0.1302E+02  0.9552E+02
    -14.377  0.1309E+02  0.9572E+02
    -14.362  0.1318E+02  0.9591E+02
    -14.348  0.1329E+02  0.9610E+02
    -14.333  0.1343E+02  0.9630E+02
    -14.318  0.1358E+02  0.9650E+02
    -14.303  0.1375E+02  0.9670E+02
    -14.289  0.1394E+02  0.9691E+02
    -14.274  0.1414E+02  0.9712E+02
    -14.259  0.1435E+02  0.9733E+02
    -14.245  0.1456E+02  0.9754E+02
    -14.230  0.1476E+02  0.9776E+02
    -14.215  0.1495E+02  0.9798E+02
    -14.200  0.1513E+02  0.9820E+02
    -14.186  0.1529E+02  0.9843E+02
    -14.171  0.1543E+02  0.9866E+02
    -14.156  0.1555E+02  0.9888E+02
    -14.141  0.1566E+02  0.9911E+02
    -14.127  0.1575E+02  0.9935E+02
    -14.112  0.1583E+02  0.9958E+02
    -14.097  0.1590E+02  0.9981E+02
    -14.083  0.1598E+02  0.1000E+03
    -14.068  0.1607E+02  0.1003E+03
    -14.053  0.1616E+02  0.1005E+03
    -14.038  0.1628E+02  0.1008E+03
    -14.024  0.1641E+02  0.1010E+03
    -14.009  0.1656E+02  0.1012E+03
    -13.994  0.1673E+02  0.1015E+03
    -13.980  0.1693E+02  0.1017E+03
    -13.965  0.1714E+02  0.1020E+03
    -13.950  0.1737E+02  0.1023E+03
    -13.935  0.1761E+02  0.1025E+03
    -13.921  0.1785E+02  0.1028E+03
    -13.906  0.1810E+02  0.1030E+03
    -13.891  0.1835E+02  0.1033E+03
    -13.877  0.1858E+02  0.1036E+03
    -13.862  0.1880E+02  0.1039E+03
    -13.847  0.1901E+02  0.1041E+03
    -13.832  0.1919E+02  0.1044E+03
    -13.818  0.1936E+02  0.1047E+03
    -13.803  0.1950E+02  0.1050E+03
    -13.788  0.1962E+02  0.1053E+03
    -13.774  0.1971E+02  0.1056E+03
    -13.759  0.1978E+02  0.1059E+03
    -13.744  0.1982E+02  0.1062E+03
    -13.729  0.1985E+02  0.1064E+03
    -13.715  0.1985E+02  0.1067E+03
    -13.700  0.1983E+02  0.1070E+03
    -13.685  0.1978E+02  0.1073E+03
    -13.671  0.1971E+02  0.1076E+03
    -13.656  0.1963E+02  0.1079E+03
    -13.641  0.1952E+02  0.1082E+03
    -13.626  0.1939E+02  0.1085E+03
    -13.612  0.1924E+02  0.1088E+03
    -13.597  0.1908E+02  0.1090E+03
    -13.582  0.1890E+02  0.1093E+03
    -13.568  0.1871E+02  0.1096E+03
    -13.553  0.1852E+02  0.1099E+03
    -13.538  0.1831E+02  0.1101E+03
    -13.523  0.1810E+02  0.1104E+03
    -13.509  0.1790E+02  0.1107E+03
    -13.494  0.1769E+02  0.1109E+03
    -13.479  0.1749E+02  0.1112E+03
    -13.464  0.1730E+02  0.1114E+03
    -13.450  0.1711E+02  0.1117E+03
    -13.435  0.1694E+02  0.1119E+03
    -13.420  0.1677E+02  0.1122E+03
    -13.406  0.1662E+02  0.1124E+03
    -13.391  0.1648E+02  0.1127E+03
    -13.376  0.1635E+02  0.1129E+03
    -13.361  0.1624E+02  0.1132E+03
    -13.347  0.1614E+02  0.1134E+03
    -13.332  0.1606E+02  0.1136E+03
    -13.317  0.1600E+02  0.1139E+03
    -13.303  0.1597E+02  0.1141E+03
    -13.288  0.1596E+02  0.1143E+03
    -13.273  0.1598E+02  0.1146E+03
    -13.258  0.1602E+02  0.1148E+03
    -13.244  0.1610E+02  0.1150E+03
    -13.229  0.1620E+02  0.1153E+03
    -13.214  0.1633E+02  0.1155E+03
    -13.200  0.1649E+02  0.1158E+03
    -13.185  0.1666E+02  0.1160E+03
    -13.170  0.1685E+02  0.1163E+03
    -13.155  0.1705E+02  0.1165E+03
    -13.141  0.1724E+02  0.1168E+03
    -13.126  0.1743E+02  0.1170E+03
    -13.111  0.1760E+02  0.1173E+03
    -13.097  0.1774E+02  0.1175E+03
    -13.082  0.1786E+02  0.1178E+03
    -13.067  0.1793E+02  0.1181E+03
    -13.052  0.1796E+02  0.1183E+03
    -13.038  0.1795E+02  0.1186E+03
    -13.023  0.1788E+02  0.1189E+03
    -13.008  0.1778E+02  0.1191E+03
    -12.994  0.1763E+02  0.1194E+03
    -12.979  0.1744E+02  0.1196E+03
    -12.964  0.1722E+02  0.1199E+03
    -12.949  0.1698E+02  0.1201E+03
    -12.935  0.1672E+02  0.1204E+03
    -12.920  0.1646E+02  0.1206E+03
    -12.905  0.1619E+02  0.1209E+03
    -12.891  0.1594E+02  0.1211E+03
    -12.876  0.1571E+02  0.1213E+03
    -12.861  0.1550E+02  0.1216E+03
    -12.846  0.1532E+02  0.1218E+03
    -12.832  0.1517E+02  0.1220E+03
    -12.817  0.1505E+02  0.1222E+03
    -12.802  0.1497E+02  0.1224E+03
    -12.787  0.1491E+02  0.1227E+03
    -12.773  0.1487E+02  0.1229E+03
    -12.758  0.1486E+02  0.1231E+03
    -12.743  0.1486E+02  0.1233E+03
    -12.729  0.1488E+02  0.1235E+03
    -12.714  0.1489E+02  0.1238E+03
    -12.699  0.1491E+02  0.1240E+03
    -12.684  0.1493E+02  0.1242E+03
    -12.670  0.1494E+02  0.1244E+03
    -12.655  0.1495E+02  0.1246E+03
    -12.640  0.1494E+02  0.1249E+03
    -12.626  0.1492E+02  0.1251E+03
    -12.611  0.1490E+02  0.1253E+03
    -12.596  0.1487E+02  0.1255E+03
    -12.581  0.1482E+02  0.1257E+03
    -12.567  0.1477E+02  0.1260E+03
    -12.552  0.1472E+02  0.1262E+03
    -12.537  0.1465E+02  0.1264E+03
    -12.523  0.1458E+02  0.1266E+03
    -12.508  0.1450E+02  0.1268E+03
    -12.493  0.1441E+02  0.1270E+03
    -12.478  0.1432E+02  0.1272E+03
    -12.464  0.1420E+02  0.1274E+03
    -12.449  0.1408E+02  0.1277E+03
    -12.434  0.1394E+02  0.1279E+03
    -12.420  0.1379E+02  0.1281E+03
    -12.405  0.1362E+02  0.1283E+03
    -12.390  0.1343E+02  0.1285E+03
    -12.375  0.1324E+02  0.1287E+03
    -12.361  0.1303E+02  0.1288E+03
    -12.346  0.1281E+02  0.1290E+03
    -12.331  0.1259E+02  0.1292E+03
    -12.317  0.1237E+02  0.1294E+03
    -12.302  0.1216E+02  0.1296E+03
    -12.287  0.1196E+02  0.1298E+03
    -12.272  0.1178E+02  0.1299E+03
    -12.258  0.1163E+02  0.1301E+03
    -12.243  0.1150E+02  0.1303E+03
    -12.228  0.1140E+02  0.1304E+03
    -12.214  0.1135E+02  0.1306E+03
    -12.199  0.1134E+02  0.1308E+03
    -12.184  0.1137E+02  0.1309E+03
    -12.169  0.1145E+02  0.1311E+03
    -12.155  0.1157E+02  0.1313E+03
    -12.140  0.1174E+02  0.1314E+03
    -12.125  0.1196E+02  0.1316E+03
    -12.110  0.1221E+02  0.1318E+03
    -12.096  0.1250E+02  0.1320E+03
    -12.081  0.1281E+02  0.1322E+03
    -12.066  0.1315E+02  0.1324E+03
    -12.052  0.1350E+02  0.1326E+03
    -12.037  0.1385E+02  0.1328E+03
    -12.022  0.1421E+02  0.1330E+03
    -12.007  0.1455E+02  0.1332E+03
    -11.993  0.1489E+02  0.1334E+03
    -11.978  0.1520E+02  0.1336E+03
    -11.963  0.1549E+02  0.1339E+03
    -11.949  0.1576E+02  0.1341E+03
    -11.934  0.1599E+02  0.1343E+03
    -11.919  0.1620E+02  0.1346E+03
    -11.904  0.1638E+02  0.1348E+03
    -11.890  0.1654E+02  0.1351E+03
    -11.875  0.1667E+02  0.1353E+03
    -11.860  0.1678E+02  0.1355E+03
    -11.846  0.1689E+02  0.1358E+03
    -11.831  0.1698E+02  0.1360E+03
    -11.816  0.1707E+02  0.1363E+03
    -11.801  0.1716E+02  0.1366E+03
    -11.787  0.1725E+02  0.1368E+03
    -11.772  0.1734E+02  0.1371E+03
    -11.757  0.1744E+02  0.1373E+03
    -11.743  0.1755E+02  0.1376E+03
    -11.728  0.1766E+02  0.1378E+03
    -11.713  0.1777E+02  0.1381E+03
    -11.698  0.1788E+02  0.1384E+03
    -11.684  0.1798E+02  0.1386E+03
    -11.669  0.1807E+02  0.1389E+03
    -11.654  0.1815E+02  0.1392E+03
    -11.640  0.1820E+02  0.1394E+03
    -11.625  0.1822E+02  0.1397E+03
    -11.610  0.1822E+02  0.1400E+03
    -11.595  0.1818E+02  0.1402E+03
    -11.581  0.1810E+02  0.1405E+03
    -11.566  0.1799E+02  0.1408E+03
    -11.551  0.1785E+02  0.1410E+03
    -11.537  0.1766E+02  0.1413E+03
    -11.522  0.1745E+02  0.1415E+03
    -11.507  0.1722E+02  0.1418E+03
    -11.492  0.1696E+02  0.1420E+03
    -11.478  0.1669E+02  0.1423E+03
    -11.463  0.1641E+02  0.1425E+03
    -11.448  0.1613E+02  0.1428E+03
    -11.433  0.1586E+02  0.1430E+03
    -11.419  0.1561E+02  0.1432E+03
    -11.404  0.1537E+02  0.1435E+03
    -11.389  0.1515E+02  0.1437E+03
    -11.375  0.1497E+02  0.1439E+03
    -11.360  0.1481E+02  0.1441E+03
    -11.345  0.1469E+02  0.1443E+03
    -11.330  0.1460E+02  0.1445E+03
    -11.316  0.1454E+02  0.1448E+03
    -11.301  0.1452E+02  0.1450E+03
    -11.286  0.1454E+02  0.1452E+03
    -11.272  0.1458E+02  0.1454E+03
    -11.257  0.1466E+02  0.1456E+03
    -11.242  0.1478E+02  0.1458E+03
    -11.227  0.1492E+02  0.1461E+03
    -11.213  0.1510E+02  0.1463E+03
    -11.198  0.1530E+02  0.1465E+03
    -11.183  0.1554E+02  0.1467E+03
    -11.169  0.1580E+02  0.1470E+03
    -11.154  0.1609E+02  0.1472E+03
    -11.139  0.1641E+02  0.1474E+03
    -11.124  0.1676E+02  0.1477E+03
    -11.110  0.1712E+02  0.1479E+03
    -11.095  0.1750E+02  0.1482E+03
    -11.080  0.1790E+02  0.1485E+03
    -11.066  0.1829E+02  0.1487E+03
    -11.051  0.1868E+02  0.1490E+03
    -11.036  0.1906E+02  0.1493E+03
    -11.021  0.1941E+02  0.1496E+03
    -11.007  0.1973E+02  0.1499E+03
    -10.992  0.2001E+02  0.1502E+03
    -10.977  0.2023E+02  0.1505E+03
    -10.963  0.2039E+02  0.1508E+03
    -10.948  0.2049E+02  0.1511E+03
    -10.933  0.2051E+02  0.1514E+03
    -10.918  0.2045E+02  0.1517E+03
    -10.904  0.2032E+02  0.1520E+03
    -10.889  0.2012E+02  0.1523E+03
    -10.874  0.1985E+02  0.1525E+03
    -10.860  0.1952E+02  0.1528E+03
    -10.845  0.1914E+02  0.1531E+03
    -10.830  0.1872E+02  0.1534E+03
    -10.815  0.1827E+02  0.1537E+03
    -10.801  0.1782E+02  0.1539E+03
    -10.786  0.1736E+02  0.1542E+03
    -10.771  0.1691E+02  0.1544E+03
    -10.756  0.1649E+02  0.1547E+03
    -10.742  0.1611E+02  0.1549E+03
    -10.727  0.1577E+02  0.1551E+03