  92  92   0   0
  0.2733267E+02  0.1704000E-08  0.1475707E-08  0.1000000E-08  0.5000000E-15
  1.000000000000000E-004
  CAR 
 unknown system                          
      5.25525449    -24.64693709 2000     -1.56149970      1.00000000
    -24.647  0.0000E+00  0.0000E+00
    -24.632  0.0000E+00  0.0000E+00
    -24.617  0.0000E+00  0.0000E+00
    -24.602  0.0000E+00  0.0000E+00
    -24.587  0.0000E+00  0.0000E+00
    -24.572  0.0000E+00  0.0000E+00
    -24.557  0.0000E+00  0.0000E+00
    -24.542  0.0000E+00  0.0000E+00
    -24.527  0.0000E+00  0.0000E+00
    -24.512  0.0000E+00  0.0000E+00
    -24.497  0.0000E+00  0.0000E+00
    -24.482  0.0000E+00  0.0000E+00
    -24.467  0.0000E+00  0.0000E+00
    -24.452  0.0000E+00  0.0000E+00
    -24.438  0.0000E+00  0.0000E+00
    -24.423  0.0000E+00  0.0000E+00
    -24.408  0.0000E+00  0.0000E+00
    -24.393  0.0000E+00  0.0000E+00
    -24.378  0.0000E+00  0.0000E+00
    -24.363  0.0000E+00  0.0000E+00
    -24.348  0.0000E+00  0.0000E+00
    -24.333  0.0000E+00  0.0000E+00
    -24.318  0.0000E+00  0.0000E+00
    -24.303  0.0000E+00  0.0000E+00
    -24.288  0.0000E+00  0.0000E+00
    -24.273  0.0000E+00  0.0000E+00
    -24.258  0.0000E+00  0.0000E+00
    -24.243  0.0000E+00  0.0000E+00
    -24.228  0.0000E+00  0.0000E+00
    -24.213  0.0000E+00  0.0000E+00
    -24.198  0.0000E+00  0.0000E+00
    -24.183  0.0000E+00  0.0000E+00
    -24.168  0.0000E+00  0.0000E+00
    -24.153  0.0000E+00  0.0000E+00
    -24.138  0.0000E+00  0.0000E+00
    -24.123  0.0000E+00  0.0000E+00
    -24.108  0.0000E+00  0.0000E+00
    -24.093  0.0000E+00  0.0000E+00
    -24.079  0.0000E+00  0.0000E+00
    -24.064  0.0000E+00  0.0000E+00
    -24.049  0.0000E+00  0.0000E+00
    -24.034  0.0000E+00  0.0000E+00
    -24.019  0.0000E+00  0.0000E+00
    -24.004  0.0000E+00  0.0000E+00
    -23.989  0.0000E+00  0.0000E+00
    -23.974  0.0000E+00  0.0000E+00
    -23.959  0.0000E+00  0.0000E+00
    -23.944  0.0000E+00  0.0000E+00
    -23.929  0.0000E+00  0.0000E+00
    -23.914  0.0000E+00  0.0000E+00
    -23.899  0.0000E+00  0.0000E+00
    -23.884  0.0000E+00  0.0000E+00
    -23.869  0.0000E+00  0.0000E+00
    -23.854  0.0000E+00  0.0000E+00
    -23.839  0.0000E+00  0.0000E+00
    -23.824  0.7422E-14  0.1110E-15
    -23.809  0.7422E-14  0.2220E-15
    -23.794  0.1484E-13  0.4441E-15
    -23.779  0.4701E-13  0.1147E-14
    -23.764  0.1039E-12  0.2702E-14
    -23.749  0.2449E-12  0.6365E-14
    -23.734  0.5517E-12  0.1462E-13
    -23.720  0.1239E-11  0.3315E-13
    -23.705  0.2769E-11  0.7457E-13
    -23.690  0.6104E-11  0.1659E-12
    -23.675  0.1330E-10  0.3648E-12
    -23.660  0.2868E-10  0.7938E-12
    -23.645  0.6112E-10  0.1708E-11
    -23.630  0.1288E-09  0.3635E-11
    -23.615  0.2686E-09  0.7652E-11
    -23.600  0.5536E-09  0.1593E-10
    -23.585  0.1128E-08  0.3281E-10
    -23.570  0.2275E-08  0.6684E-10
    -23.555  0.4534E-08  0.1347E-09
    -23.540  0.8937E-08  0.2683E-09
    -23.525  0.1742E-07  0.5289E-09
    -23.510  0.3358E-07  0.1031E-08
    -23.495  0.6401E-07  0.1989E-08
    -23.480  0.1207E-06  0.3794E-08
    -23.465  0.2249E-06  0.7158E-08
    -23.450  0.4146E-06  0.1336E-07
    -23.435  0.7557E-06  0.2466E-07
    -23.420  0.1362E-05  0.4504E-07
    -23.405  0.2428E-05  0.8136E-07
    -23.390  0.4280E-05  0.1454E-06
    -23.375  0.7460E-05  0.2570E-06
    -23.360  0.1286E-04  0.4493E-06
    -23.346  0.2192E-04  0.7772E-06
    -23.331  0.3695E-04  0.1330E-05
    -23.316  0.6159E-04  0.2251E-05
    -23.301  0.1015E-03  0.3770E-05
    -23.286  0.1655E-03  0.6245E-05
    -23.271  0.2668E-03  0.1024E-04
    -23.256  0.4252E-03  0.1660E-04
    -23.241  0.6703E-03  0.2662E-04
    -23.226  0.1045E-02  0.4225E-04
    -23.211  0.1610E-02  0.6634E-04
    -23.196  0.2455E-02  0.1031E-03
    -23.181  0.3700E-02  0.1584E-03
    -23.166  0.5516E-02  0.2409E-03
    -23.151  0.8131E-02  0.3625E-03
    -23.136  0.1185E-01  0.5398E-03
    -23.121  0.1708E-01  0.7954E-03
    -23.106  0.2435E-01  0.1160E-02
    -23.091  0.3433E-01  0.1673E-02
    -23.076  0.4785E-01  0.2389E-02
    -23.061  0.6595E-01  0.3375E-02
    -23.046  0.8990E-01  0.4720E-02
    -23.031  0.1212E+00  0.6533E-02
    -23.016  0.1615E+00  0.8949E-02
    -23.001  0.2129E+00  0.1213E-01
    -22.987  0.2775E+00  0.1629E-01
    -22.972  0.3578E+00  0.2164E-01
    -22.957  0.4560E+00  0.2846E-01
    -22.942  0.5748E+00  0.3706E-01
    -22.927  0.7165E+00  0.4778E-01
    -22.912  0.8832E+00  0.6099E-01
    -22.897  0.1077E+01  0.7709E-01
    -22.882  0.1298E+01  0.9651E-01
    -22.867  0.1547E+01  0.1196E+00
    -22.852  0.1823E+01  0.1469E+00
    -22.837  0.2126E+01  0.1787E+00
    -22.822  0.2450E+01  0.2154E+00
    -22.807  0.2793E+01  0.2571E+00
    -22.792  0.3148E+01  0.3042E+00
    -22.777  0.3509E+01  0.3567E+00
    -22.762  0.3868E+01  0.4146E+00
    -22.747  0.4216E+01  0.4777E+00
    -22.732  0.4545E+01  0.5456E+00
    -22.717  0.4845E+01  0.6181E+00
    -22.702  0.5107E+01  0.6945E+00
    -22.687  0.5323E+01  0.7741E+00
    -22.672  0.5487E+01  0.8562E+00
    -22.657  0.5593E+01  0.9399E+00
    -22.642  0.5638E+01  0.1024E+01
    -22.628  0.5620E+01  0.1108E+01
    -22.613  0.5540E+01  0.1191E+01
    -22.598  0.5400E+01  0.1272E+01
    -22.583  0.5205E+01  0.1350E+01
    -22.568  0.4961E+01  0.1424E+01
    -22.553  0.4677E+01  0.1494E+01
    -22.538  0.4359E+01  0.1559E+01
    -22.523  0.4018E+01  0.1619E+01
    -22.508  0.3663E+01  0.1674E+01
    -22.493  0.3302E+01  0.1723E+01
    -22.478  0.2943E+01  0.1767E+01
    -22.463  0.2594E+01  0.1806E+01
    -22.448  0.2261E+01  0.1840E+01
    -22.433  0.1949E+01  0.1869E+01
    -22.418  0.1662E+01  0.1894E+01
    -22.403  0.1401E+01  0.1915E+01
    -22.388  0.1167E+01  0.1933E+01
    -22.373  0.9624E+00  0.1947E+01
    -22.358  0.7845E+00  0.1959E+01
    -22.343  0.6323E+00  0.1968E+01
    -22.328  0.5040E+00  0.1976E+01
    -22.313  0.3973E+00  0.1982E+01
    -22.298  0.3097E+00  0.1986E+01
    -22.283  0.2387E+00  0.1990E+01
    -22.269  0.1820E+00  0.1993E+01
    -22.254  0.1372E+00  0.1995E+01
    -22.239  0.1022E+00  0.1996E+01
    -22.224  0.7537E-01  0.1997E+01
    -22.209  0.5494E-01  0.1998E+01
    -22.194  0.3960E-01  0.1999E+01
    -22.179  0.2823E-01  0.1999E+01
    -22.164  0.1990E-01  0.1999E+01
    -22.149  0.1387E-01  0.2000E+01
    -22.134  0.9561E-02  0.2000E+01
    -22.119  0.6517E-02  0.2000E+01
    -22.104  0.4393E-02  0.2000E+01
    -22.089  0.2929E-02  0.2000E+01
    -22.074  0.1931E-02  0.2000E+01
    -22.059  0.1260E-02  0.2000E+01
    -22.044  0.8150E-03  0.2000E+01
    -22.029  0.5238E-03  0.2000E+01
    -22.014  0.3377E-03  0.2000E+01
    -21.999  0.2233E-03  0.2000E+01
    -21.984  0.1593E-03  0.2000E+01
    -21.969  0.1333E-03  0.2000E+01
    -21.954  0.1401E-03  0.2000E+01
    -21.939  0.1811E-03  0.2000E+01
    -21.924  0.2645E-03  0.2000E+01
    -21.910  0.4065E-03  0.2000E+01
    -21.895  0.6333E-03  0.2000E+01
    -21.880  0.9854E-03  0.2000E+01
    -21.865  0.1522E-02  0.2000E+01
    -21.850  0.2329E-02  0.2000E+01
    -21.835  0.3526E-02  0.2000E+01
    -21.820  0.5283E-02  0.2000E+01
    -21.805  0.7832E-02  0.2000E+01
    -21.790  0.1149E-01  0.2001E+01
    -21.775  0.1667E-01  0.2001E+01
    -21.760  0.2393E-01  0.2001E+01
    -21.745  0.3399E-01  0.2002E+01
    -21.730  0.4778E-01  0.2002E+01
    -21.715  0.6645E-01  0.2003E+01
    -21.700  0.9143E-01  0.2005E+01
    -21.685  0.1245E+00  0.2007E+01
    -21.670  0.1678E+00  0.2009E+01
    -21.655  0.2237E+00  0.2012E+01
    -21.640  0.2952E+00  0.2017E+01
    -21.625  0.3855E+00  0.2023E+01
    -21.610  0.4982E+00  0.2030E+01
    -21.595  0.6372E+00  0.2040E+01
    -21.580  0.8068E+00  0.2052E+01
    -21.565  0.1011E+01  0.2067E+01
    -21.551  0.1254E+01  0.2086E+01
    -21.536  0.1540E+01  0.2109E+01
    -21.521  0.1872E+01  0.2137E+01
    -21.506  0.2253E+01  0.2170E+01
    -21.491  0.2685E+01  0.2210E+01
    -21.476  0.3168E+01  0.2258E+01
    -21.461  0.3702E+01  0.2313E+01
    -21.446  0.4284E+01  0.2377E+01
    -21.431  0.4910E+01  0.2451E+01
    -21.416  0.5574E+01  0.2534E+01
    -21.401  0.6268E+01  0.2628E+01
    -21.386  0.6985E+01  0.2732E+01
    -21.371  0.7713E+01  0.2848E+01
    -21.356  0.8441E+01  0.2974E+01
    -21.341  0.9157E+01  0.3111E+01
    -21.326  0.9850E+01  0.3258E+01
    -21.311  0.1051E+02  0.3416E+01
    -21.296  0.1112E+02  0.3582E+01
    -21.281  0.1167E+02  0.3756E+01
    -21.266  0.1216E+02  0.3938E+01
    -21.251  0.1259E+02  0.4127E+01
    -21.236  0.1293E+02  0.4320E+01
    -21.221  0.1321E+02  0.4518E+01
    -21.206  0.1341E+02  0.4718E+01
    -21.192  0.1353E+02  0.4921E+01
    -21.177  0.1359E+02  0.5124E+01
    -21.162  0.1359E+02  0.5327E+01
    -21.147  0.1354E+02  0.5530E+01
    -21.132  0.1344E+02  0.5731E+01
    -21.117  0.1331E+02  0.5930E+01
    -21.102  0.1314E+02  0.6126E+01
    -21.087  0.1296E+02  0.6320E+01
    -21.072  0.1277E+02  0.6511E+01
    -21.057  0.1257E+02  0.6699E+01
    -21.042  0.1237E+02  0.6884E+01
    -21.027  0.1219E+02  0.7067E+01
    -21.012  0.1202E+02  0.7246E+01
    -20.997  0.1186E+02  0.7424E+01
    -20.982  0.1173E+02  0.7599E+01
    -20.967  0.1162E+02  0.7773E+01
    -20.952  0.1153E+02  0.7945E+01
    -20.937  0.1147E+02  0.8117E+01
    -20.922  0.1143E+02  0.8288E+01
    -20.907  0.1142E+02  0.8459E+01
    -20.892  0.1143E+02  0.8630E+01
    -20.877  0.1146E+02  0.8801E+01
    -20.862  0.1151E+02  0.8973E+01
    -20.847  0.1157E+02  0.9146E+01
    -20.833  0.1165E+02  0.9321E+01
    -20.818  0.1174E+02  0.9496E+01
    -20.803  0.1184E+02  0.9674E+01
    -20.788  0.1195E+02  0.9852E+01
    -20.773  0.1205E+02  0.1003E+02
    -20.758  0.1216E+02  0.1021E+02
    -20.743  0.1226E+02  0.1040E+02
    -20.728  0.1236E+02  0.1058E+02
    -20.713  0.1246E+02  0.1077E+02
    -20.698  0.1255E+02  0.1096E+02
    -20.683  0.1264E+02  0.1115E+02
    -20.668  0.1273E+02  0.1134E+02
    -20.653  0.1281E+02  0.1153E+02
    -20.638  0.1288E+02  0.1172E+02
    -20.623  0.1295E+02  0.1191E+02
    -20.608  0.1301E+02  0.1211E+02
    -20.593  0.1307E+02  0.1230E+02
    -20.578  0.1312E+02  0.1250E+02
    -20.563  0.1315E+02  0.1270E+02
    -20.548  0.1317E+02  0.1289E+02
    -20.533  0.1318E+02  0.1309E+02
    -20.518  0.1317E+02  0.1329E+02
    -20.503  0.1314E+02  0.1349E+02
    -20.488  0.1309E+02  0.1368E+02
    -20.473  0.1302E+02  0.1388E+02
    -20.459  0.1293E+02  0.1407E+02
    -20.444  0.1283E+02  0.1426E+02
    -20.429  0.1271E+02  0.1445E+02
    -20.414  0.1257E+02  0.1464E+02
    -20.399  0.1244E+02  0.1483E+02
    -20.384  0.1230E+02  0.1501E+02
    -20.369  0.1217E+02  0.1519E+02
    -20.354  0.1204E+02  0.1537E+02
    -20.339  0.1193E+02  0.1555E+02
    -20.324  0.1184E+02  0.1573E+02
    -20.309  0.1177E+02  0.1590E+02
    -20.294  0.1172E+02  0.1608E+02
    -20.279  0.1170E+02  0.1625E+02
    -20.264  0.1170E+02  0.1643E+02
    -20.249  0.1172E+02  0.1660E+02
    -20.234  0.1176E+02  0.1678E+02
    -20.219  0.1182E+02  0.1696E+02
    -20.204  0.1189E+02  0.1713E+02
    -20.189  0.1197E+02  0.1731E+02
    -20.174  0.1205E+02  0.1749E+02
    -20.159  0.1214E+02  0.1768E+02
    -20.144  0.1222E+02  0.1786E+02
    -20.129  0.1231E+02  0.1804E+02
    -20.114  0.1239E+02  0.1823E+02
    -20.100  0.1247E+02  0.1841E+02
    -20.085  0.1255E+02  0.1860E+02
    -20.070  0.1264E+02  0.1879E+02
    -20.055  0.1273E+02  0.1898E+02
    -20.040  0.1283E+02  0.1917E+02
    -20.025  0.1293E+02  0.1937E+02
    -20.010  0.1304E+02  0.1956E+02
    -19.995  0.1316E+02  0.1976E+02
    -19.980  0.1329E+02  0.1996E+02
    -19.965  0.1343E+02  0.2016E+02
    -19.950  0.1357E+02  0.2036E+02
    -19.935  0.1370E+02  0.2057E+02
    -19.920  0.1383E+02  0.2077E+02
    -19.905  0.1395E+02  0.2098E+02
    -19.890  0.1406E+02  0.2119E+02
    -19.875  0.1414E+02  0.2140E+02
    -19.860  0.1420E+02  0.2162E+02
    -19.845  0.1423E+02  0.2183E+02
    -19.830  0.1423E+02  0.2204E+02
    -19.815  0.1420E+02  0.2225E+02
    -19.800  0.1414E+02  0.2247E+02
    -19.785  0.1406E+02  0.2268E+02
    -19.770  0.1394E+02  0.2288E+02
    -19.755  0.1381E+02  0.2309E+02
    -19.741  0.1366E+02  0.2330E+02
    -19.726  0.1349E+02  0.2350E+02
    -19.711  0.1331E+02  0.2370E+02
    -19.696  0.1313E+02  0.2389E+02
    -19.681  0.1296E+02  0.2409E+02
    -19.666  0.1278E+02  0.2428E+02
    -19.651  0.1262E+02  0.2447E+02
    -19.636  0.1247E+02  0.2465E+02
    -19.621  0.1233E+02  0.2484E+02
    -19.606  0.1222E+02  0.2502E+02
    -19.591  0.1212E+02  0.2520E+02
    -19.576  0.1205E+02  0.2538E+02
    -19.561  0.1200E+02  0.2556E+02
    -19.546  0.1198E+02  0.2574E+02
    -19.531  0.1198E+02  0.2592E+02
    -19.516  0.1201E+02  0.2610E+02
    -19.501  0.1207E+02  0.2628E+02
    -19.486  0.1215E+02  0.2646E+02
    -19.471  0.1226E+02  0.2664E+02
    -19.456  0.1240E+02  0.2683E+02
    -19.441  0.1256E+02  0.2702E+02
    -19.426  0.1274E+02  0.2721E+02
    -19.411  0.1294E+02  0.2740E+02
    -19.396  0.1317E+02  0.2760E+02
    -19.382  0.1341E+02  0.2780E+02
    -19.367  0.1366E+02  0.2800E+02
    -19.352  0.1393E+02  0.2821E+02
    -19.337  0.1420E+02  0.2842E+02
    -19.322  0.1447E+02  0.2864E+02
    -19.307  0.1474E+02  0.2886E+02
    -19.292  0.1502E+02  0.2909E+02
    -19.277  0.1528E+02  0.2932E+02
    -19.262  0.1554E+02  0.2955E+02
    -19.247  0.1578E+02  0.2978E+02
    -19.232  0.1602E+02  0.3002E+02
    -19.217  0.1623E+02  0.3027E+02
    -19.202  0.1644E+02  0.3051E+02
    -19.187  0.1663E+02  0.3076E+02
    -19.172  0.1680E+02  0.3101E+02
    -19.157  0.1695E+02  0.3127E+02
    -19.142  0.1709E+02  0.3152E+02
    -19.127  0.1721E+02  0.3178E+02
    -19.112  0.1730E+02  0.3204E+02
    -19.097  0.1738E+02  0.3230E+02
    -19.082  0.1744E+02  0.3256E+02
    -19.067  0.1748E+02  0.3282E+02
    -19.052  0.1750E+02  0.3308E+02
    -19.037  0.1750E+02  0.3334E+02
    -19.023  0.1748E+02  0.3360E+02
    -19.008  0.1743E+02  0.3387E+02
    -18.993  0.1738E+02  0.3413E+02
    -18.978  0.1730E+02  0.3438E+02
    -18.963  0.1721E+02  0.3464E+02
    -18.948  0.1711E+02  0.3490E+02
    -18.933  0.1699E+02  0.3515E+02
    -18.918  0.1687E+02  0.3540E+02
    -18.903  0.1674E+02  0.3565E+02
    -18.888  0.1660E+02  0.3590E+02
    -18.873  0.1646E+02  0.3615E+02
    -18.858  0.1632E+02  0.3639E+02
    -18.843  0.1617E+02  0.3663E+02
    -18.828  0.1602E+02  0.3687E+02
    -18.813  0.1587E+02  0.3711E+02
    -18.798  0.1571E+02  0.3735E+02
    -18.783  0.1554E+02  0.3758E+02
    -18.768  0.1536E+02  0.3781E+02
    -18.753  0.1517E+02  0.3804E+02
    -18.738  0.1496E+02  0.3826E+02
    -18.723  0.1474E+02  0.3848E+02
    -18.708  0.1451E+02  0.3870E+02
    -18.693  0.1426E+02  0.3891E+02
    -18.678  0.1399E+02  0.3912E+02
    -18.664  0.1370E+02  0.3932E+02
    -18.649  0.1341E+02  0.3953E+02
    -18.634  0.1311E+02  0.3972E+02
    -18.619  0.1280E+02  0.3991E+02
    -18.604  0.1250E+02  0.4010E+02
    -18.589  0.1220E+02  0.4028E+02
    -18.574  0.1191E+02  0.4046E+02
    -18.559  0.1163E+02  0.4063E+02
    -18.544  0.1138E+02  0.4080E+02
    -18.529  0.1115E+02  0.4097E+02
    -18.514  0.1096E+02  0.4114E+02
    -18.499  0.1079E+02  0.4130E+02
    -18.484  0.1067E+02  0.4146E+02
    -18.469  0.1057E+02  0.4161E+02
    -18.454  0.1052E+02  0.4177E+02
    -18.439  0.1051E+02  0.4193E+02
    -18.424  0.1053E+02  0.4209E+02
    -18.409  0.1059E+02  0.4225E+02
    -18.394  0.1068E+02  0.4241E+02
    -18.379  0.1081E+02  0.4257E+02
    -18.364  0.1096E+02  0.4273E+02
    -18.349  0.1114E+02  0.4290E+02
    -18.334  0.1134E+02  0.4307E+02
    -18.319  0.1155E+02  0.4324E+02
    -18.305  0.1178E+02  0.4342E+02
    -18.290  0.1202E+02  0.4360E+02
    -18.275  0.1226E+02  0.4378E+02
    -18.260  0.1250E+02  0.4397E+02
    -18.245  0.1273E+02  0.4416E+02
    -18.230  0.1296E+02  0.4435E+02
    -18.215  0.1317E+02  0.4455E+02
    -18.200  0.1336E+02  0.4475E+02
    -18.185  0.1354E+02  0.4495E+02
    -18.170  0.1370E+02  0.4515E+02
    -18.155  0.1383E+02  0.4536E+02
    -18.140  0.1395E+02  0.4557E+02
    -18.125  0.1404E+02  0.4578E+02
    -18.110  0.1412E+02  0.4599E+02
    -18.095  0.1418E+02  0.4620E+02
    -18.080  0.1423E+02  0.4642E+02
    -18.065  0.1427E+02  0.4663E+02
    -18.050  0.1430E+02  0.4684E+02
    -18.035  0.1434E+02  0.4706E+02
    -18.020  0.1437E+02  0.4727E+02
    -18.005  0.1441E+02  0.4749E+02
    -17.990  0.1445E+02  0.4770E+02
    -17.975  0.1450E+02  0.4792E+02
    -17.960  0.1455E+02  0.4814E+02
    -17.945  0.1461E+02  0.4836E+02
    -17.931  0.1467E+02  0.4858E+02
    -17.916  0.1473E+02  0.4880E+02
    -17.901  0.1479E+02  0.4902E+02
    -17.886  0.1484E+02  0.4924E+02
    -17.871  0.1489E+02  0.4946E+02
    -17.856  0.1493E+02  0.4969E+02
    -17.841  0.1496E+02  0.4991E+02
    -17.826  0.1498E+02  0.5013E+02
    -17.811  0.1499E+02  0.5036E+02
    -17.796  0.1498E+02  0.5058E+02
    -17.781  0.1496E+02  0.5081E+02
    -17.766  0.1492E+02  0.5103E+02
    -17.751  0.1488E+02  0.5125E+02
    -17.736  0.1483E+02  0.5147E+02
    -17.721  0.1477E+02  0.5170E+02
    -17.706  0.1470E+02  0.5191E+02
    -17.691  0.1464E+02  0.5213E+02
    -17.676  0.1457E+02  0.5235E+02
    -17.661  0.1450E+02  0.5257E+02
    -17.646  0.1444E+02  0.5278E+02
    -17.631  0.1437E+02  0.5300E+02
    -17.616  0.1431E+02  0.5321E+02
    -17.601  0.1426E+02  0.5343E+02
    -17.586  0.1420E+02  0.5364E+02
    -17.572  0.1415E+02  0.5385E+02
    -17.557  0.1410E+02  0.5406E+02
    -17.542  0.1406E+02  0.5427E+02
    -17.527  0.1402E+02  0.5448E+02
    -17.512  0.1399E+02  0.5469E+02
    -17.497  0.1396E+02  0.5490E+02
    -17.482  0.1394E+02  0.5511E+02
    -17.467  0.1393E+02  0.5532E+02
    -17.452  0.1392E+02  0.5553E+02
    -17.437  0.1393E+02  0.5573E+02
    -17.422  0.1394E+02  0.5594E+02
    -17.407  0.1395E+02  0.5615E+02
    -17.392  0.1398E+02  0.5636E+02
    -17.377  0.1401E+02  0.5657E+02
    -17.362  0.1405E+02  0.5678E+02
    -17.347  0.1409E+02  0.5699E+02
    -17.332  0.1413E+02  0.5720E+02
    -17.317  0.1417E+02  0.5741E+02
    -17.302  0.1421E+02  0.5763E+02
    -17.287  0.1425E+02  0.5784E+02
    -17.272  0.1428E+02  0.5805E+02
    -17.257  0.1430E+02  0.5827E+02
    -17.242  0.1432E+02  0.5848E+02
    -17.227  0.1432E+02  0.5870E+02
    -17.213  0.1432E+02  0.5891E+02
    -17.198  0.1430E+02  0.5912E+02
    -17.183  0.1426E+02  0.5934E+02
    -17.168  0.1422E+02  0.5955E+02
    -17.153  0.1417E+02  0.5976E+02
    -17.138  0.1410E+02  0.5997E+02
    -17.123  0.1403E+02  0.6018E+02
    -17.108  0.1395E+02  0.6039E+02
    -17.093  0.1385E+02  0.6060E+02
    -17.078  0.1375E+02  0.6080E+02
    -17.063  0.1365E+02  0.6101E+02
    -17.048  0.1353E+02  0.6121E+02
    -17.033  0.1340E+02  0.6141E+02
    -17.018  0.1327E+02  0.6161E+02
    -17.003  0.1313E+02  0.6181E+02
    -16.988  0.1298E+02  0.6200E+02
    -16.973  0.1282E+02  0.6219E+02
    -16.958  0.1266E+02  0.6238E+02
    -16.943  0.1249E+02  0.6257E+02
    -16.928  0.1233E+02  0.6275E+02
    -16.913  0.1216E+02  0.6293E+02
    -16.898  0.1200E+02  0.6311E+02
    -16.883  0.1186E+02  0.6329E+02
    -16.868  0.1173E+02  0.6347E+02
    -16.854  0.1163E+02  0.6364E+02
    -16.839  0.1155E+02  0.6381E+02
    -16.824  0.1151E+02  0.6399E+02
    -16.809  0.1151E+02  0.6416E+02
    -16.794  0.1154E+02  0.6433E+02
    -16.779  0.1162E+02  0.6450E+02
    -16.764  0.1174E+02  0.6468E+02
    -16.749  0.1190E+02  0.6486E+02
    -16.734  0.1209E+02  0.6504E+02
    -16.719  0.1232E+02  0.6522E+02
    -16.704  0.1258E+02  0.6541E+02
    -16.689  0.1286E+02  0.6560E+02
    -16.674  0.1315E+02  0.6580E+02
    -16.659  0.1345E+02  0.6600E+02
    -16.644  0.1374E+02  0.6621E+02
    -16.629  0.1403E+02  0.6642E+02
    -16.614  0.1430E+02  0.6663E+02
    -16.599  0.1455E+02  0.6685E+02
    -16.584  0.1477E+02  0.6707E+02
    -16.569  0.1497E+02  0.6729E+02
    -16.554  0.1515E+02  0.6752E+02
    -16.539  0.1529E+02  0.6775E+02
    -16.524  0.1541E+02  0.6798E+02
    -16.509  0.1551E+02  0.6821E+02
    -16.495  0.1559E+02  0.6844E+02
    -16.480  0.1565E+02  0.6868E+02
    -16.465  0.1570E+02  0.6891E+02
    -16.450  0.1573E+02  0.6915E+02
    -16.435  0.1576E+02  0.6938E+02
    -16.420  0.1577E+02  0.6962E+02
    -16.405  0.1578E+02  0.6986E+02
    -16.390  0.1578E+02  0.7009E+02
    -16.375  0.1576E+02  0.7033E+02
    -16.360  0.1574E+02  0.7056E+02
    -16.345  0.1569E+02  0.7080E+02
    -16.330  0.1564E+02  0.7103E+02
    -16.315  0.1556E+02  0.7127E+02
    -16.300  0.1547E+02  0.7150E+02
    -16.285  0.1535E+02  0.7173E+02
    -16.270  0.1522E+02  0.7195E+02
    -16.255  0.1507E+02  0.7218E+02
    -16.240  0.1490E+02  0.7240E+02
    -16.225  0.1471E+02  0.7262E+02
    -16.210  0.1451E+02  0.7284E+02
    -16.195  0.1431E+02  0.7305E+02
    -16.180  0.1410E+02  0.7326E+02
    -16.165  0.1390E+02  0.7347E+02
    -16.150  0.1369E+02  0.7368E+02
    -16.136  0.1350E+02  0.7388E+02
    -16.121  0.1332E+02  0.7408E+02
    -16.106  0.1316E+02  0.7428E+02
    -16.091  0.1301E+02  0.7447E+02
    -16.076  0.1289E+02  0.7466E+02
    -16.061  0.1279E+02  0.7485E+02
    -16.046  0.1270E+02  0.7504E+02
    -16.031  0.1265E+02  0.7523E+02
    -16.016  0.1261E+02  0.7542E+02
    -16.001  0.1259E+02  0.7561E+02
    -15.986  0.1260E+02  0.7580E+02
    -15.971  0.1262E+02  0.7599E+02
    -15.956  0.1266E+02  0.7618E+02
    -15.941  0.1272E+02  0.7637E+02
    -15.926  0.1279E+02  0.7656E+02
    -15.911  0.1288E+02  0.7675E+02
    -15.896  0.1298E+02  0.7695E+02
    -15.881  0.1309E+02  0.7714E+02
    -15.866  0.1321E+02  0.7734E+02
    -15.851  0.1334E+02  0.7754E+02
    -15.836  0.1348E+02  0.7774E+02
    -15.821  0.1362E+02  0.7794E+02
    -15.806  0.1376E+02  0.7815E+02
    -15.791  0.1390E+02  0.7836E+02
    -15.777  0.1405E+02  0.7857E+02
    -15.762  0.1418E+02  0.7878E+02
    -15.747  0.1431E+02  0.7899E+02
    -15.732  0.1443E+02  0.7921E+02
    -15.717  0.1454E+02  0.7943E+02
    -15.702  0.1464E+02  0.7965E+02
    -15.687  0.1472E+02  0.7987E+02
    -15.672  0.1478E+02  0.8009E+02
    -15.657  0.1483E+02  0.8031E+02
    -15.642  0.1486E+02  0.8053E+02
    -15.627  0.1487E+02  0.8075E+02
    -15.612  0.1486E+02  0.8098E+02
    -15.597  0.1484E+02  0.8120E+02
    -15.582  0.1480E+02  0.8142E+02
    -15.567  0.1474E+02  0.8164E+02
    -15.552  0.1468E+02  0.8186E+02
    -15.537  0.1460E+02  0.8208E+02
    -15.522  0.1451E+02  0.8229E+02
    -15.507  0.1441E+02  0.8251E+02
    -15.492  0.1430E+02  0.8272E+02
    -15.477  0.1418E+02  0.8294E+02
    -15.462  0.1407E+02  0.8315E+02
    -15.447  0.1395E+02  0.8336E+02
    -15.432  0.1382E+02  0.8356E+02
    -15.417  0.1370E+02  0.8377E+02
    -15.403  0.1358E+02  0.8397E+02
    -15.388  0.1346E+02  0.8417E+02
    -15.373  0.1334E+02  0.8437E+02
    -15.358  0.1323E+02  0.8457E+02
    -15.343  0.1313E+02  0.8477E+02
    -15.328  0.1303E+02  0.8496E+02
    -15.313  0.1294E+02  0.8515E+02
    -15.298  0.1286E+02  0.8535E+02
    -15.283  0.1279E+02  0.8554E+02
    -15.268  0.1272E+02  0.8573E+02
    -15.253  0.1267E+02  0.8592E+02
    -15.238  0.1263E+02  0.8611E+02
    -15.223  0.1259E+02  0.8629E+02
    -15.208  0.1256E+02  0.8648E+02
    -15.193  0.1254E+02  0.8667E+02
    -15.178  0.1253E+02  0.8686E+02
    -15.163  0.1252E+02  0.8704E+02
    -15.148  0.1251E+02  0.8723E+02
    -15.133  0.1250E+02  0.8742E+02
    -15.118  0.1250E+02  0.8761E+02
    -15.103  0.1249E+02  0.8779E+02
    -15.088  0.1248E+02  0.8798E+02
    -15.073  0.1246E+02  0.8817E+02
    -15.058  0.1244E+02  0.8835E+02
    -15.044  0.1242E+02  0.8854E+02
    -15.029  0.1240E+02  0.8872E+02
    -15.014  0.1238E+02  0.8891E+02
    -14.999  0.1236E+02  0.8909E+02
    -14.984  0.1235E+02  0.8928E+02
    -14.969  0.1235E+02  0.8946E+02
    -14.954  0.1236E+02  0.8965E+02
    -14.939  0.1238E+02  0.8983E+02
    -14.924  0.1243E+02  0.9002E+02
    -14.909  0.1250E+02  0.9021E+02
    -14.894  0.1260E+02  0.9039E+02
    -14.879  0.1272E+02  0.9058E+02
    -14.864  0.1287E+02  0.9078E+02
    -14.849  0.1306E+02  0.9097E+02
    -14.834  0.1327E+02  0.9117E+02
    -14.819  0.1350E+02  0.9137E+02
    -14.804  0.1376E+02  0.9158E+02
    -14.789  0.1404E+02  0.9179E+02
    -14.774  0.1433E+02  0.9200E+02
    -14.759  0.1462E+02  0.9222E+02
    -14.744  0.1493E+02  0.9244E+02
    -14.729  0.1523E+02  0.9267E+02
    -14.714  0.1552E+02  0.9290E+02
    -14.699  0.1580E+02  0.9314E+02
    -14.685  0.1606E+02  0.9338E+02
    -14.670  0.1630E+02  0.9362E+02
    -14.655  0.1651E+02  0.9387E+02
    -14.640  0.1670E+02  0.9412E+02
    -14.625  0.1686E+02  0.9437E+02
    -14.610  0.1699E+02  0.9463E+02
    -14.595  0.1709E+02  0.9488E+02
    -14.580  0.1717E+02  0.9514E+02
    -14.565  0.1723E+02  0.9540E+02
    -14.550  0.1726E+02  0.9566E+02
    -14.535  0.1727E+02  0.9591E+02
    -14.520  0.1727E+02  0.9617E+02
    -14.505  0.1726E+02  0.9643E+02
    -14.490  0.1725E+02  0.9669E+02
    -14.475  0.1723E+02  0.9695E+02
    -14.460  0.1721E+02  0.9720E+02
    -14.445  0.1720E+02  0.9746E+02
    -14.430  0.1719E+02  0.9772E+02
    -14.415  0.1718E+02  0.9798E+02
    -14.400  0.1718E+02  0.9823E+02
    -14.385  0.1719E+02  0.9849E+02
    -14.370  0.1721E+02  0.9875E+02
    -14.355  0.1723E+02  0.9900E+02
    -14.340  0.1725E+02  0.9926E+02
    -14.326  0.1727E+02  0.9952E+02
    -14.311  0.1729E+02  0.9978E+02
    -14.296  0.1730E+02  0.1000E+03
    -14.281  0.1730E+02  0.1003E+03
    -14.266  0.1728E+02  0.1006E+03
    -14.251  0.1725E+02  0.1008E+03
    -14.236  0.1721E+02  0.1011E+03
    -14.221  0.1714E+02  0.1013E+03
    -14.206  0.1705E+02  0.1016E+03
    -14.191  0.1695E+02  0.1018E+03
    -14.176  0.1682E+02  0.1021E+03
    -14.161  0.1668E+02  0.1023E+03
    -14.146  0.1652E+02  0.1026E+03
    -14.131  0.1635E+02  0.1028E+03
    -14.116  0.1618E+02  0.1031E+03
    -14.101  0.1599E+02  0.1033E+03
    -14.086  0.1581E+02  0.1035E+03
    -14.071  0.1562E+02  0.1038E+03
    -14.056  0.1544E+02  0.1040E+03
    -14.041  0.1527E+02  0.1042E+03
    -14.026  0.1511E+02  0.1045E+03
    -14.011  0.1496E+02  0.1047E+03
    -13.996  0.1483E+02  0.1049E+03
    -13.981  0.1471E+02  0.1051E+03
    -13.967  0.1460E+02  0.1053E+03
    -13.952  0.1451E+02  0.1056E+03
    -13.937  0.1443E+02  0.1058E+03
    -13.922  0.1436E+02  0.1060E+03
    -13.907  0.1431E+02  0.1062E+03
    -13.892  0.1425E+02  0.1064E+03
    -13.877  0.1421E+02  0.1066E+03
    -13.862  0.1416E+02  0.1068E+03
    -13.847  0.1412E+02  0.1071E+03
    -13.832  0.1407E+02  0.1073E+03
    -13.817  0.1403E+02  0.1075E+03
    -13.802  0.1398E+02  0.1077E+03
    -13.787  0.1393E+02  0.1079E+03
    -13.772  0.1388E+02  0.1081E+03
    -13.757  0.1383E+02  0.1083E+03
    -13.742  0.1379E+02  0.1085E+03
    -13.727  0.1375E+02  0.1087E+03
    -13.712  0.1373E+02  0.1089E+03
    -13.697  0.1372E+02  0.1091E+03
    -13.682  0.1373E+02  0.1093E+03
    -13.667  0.1376E+02  0.1095E+03
    -13.652  0.1381E+02  0.1098E+03
    -13.637  0.1389E+02  0.1100E+03
    -13.622  0.1400E+02  0.1102E+03
    -13.608  0.1413E+02  0.1104E+03
    -13.593  0.1429E+02  0.1106E+03
    -13.578  0.1447E+02  0.1108E+03
    -13.563  0.1468E+02  0.1110E+03
    -13.548  0.1489E+02  0.1113E+03
    -13.533  0.1512E+02  0.1115E+03
    -13.518  0.1534E+02  0.1117E+03
    -13.503  0.1556E+02  0.1119E+03
    -13.488  0.1577E+02  0.1122E+03
    -13.473  0.1596E+02  0.1124E+03
    -13.458  0.1612E+02  0.1127E+03
    -13.443  0.1625E+02  0.1129E+03
    -13.428  0.1634E+02  0.1131E+03
    -13.413  0.1640E+02  0.1134E+03
    -13.398  0.1642E+02  0.1136E+03
    -13.383  0.1640E+02  0.1139E+03
    -13.368  0.1635E+02  0.1141E+03
    -13.353  0.1626E+02  0.1144E+03
    -13.338  0.1615E+02  0.1146E+03
    -13.323  0.1603E+02  0.1149E+03
    -13.308  0.1589E+02  0.1151E+03
    -13.293  0.1576E+02  0.1153E+03
    -13.278  0.1563E+02  0.1156E+03
    -13.263  0.1552E+02  0.1158E+03
    -13.249  0.1542E+02  0.1160E+03
    -13.234  0.1535E+02  0.1163E+03
    -13.219  0.1530E+02  0.1165E+03
    -13.204  0.1528E+02  0.1167E+03
    -13.189  0.1529E+02  0.1169E+03
    -13.174  0.1533E+02  0.1172E+03
    -13.159  0.1539E+02  0.1174E+03
    -13.144  0.1547E+02  0.1176E+03
    -13.129  0.1556E+02  0.1179E+03
    -13.114  0.1567E+02  0.1181E+03
    -13.099  0.1578E+02  0.1183E+03
    -13.084  0.1590E+02  0.1186E+03
    -13.069  0.1601E+02  0.1188E+03
    -13.054  0.1612E+02  0.1190E+03
    -13.039  0.1622E+02  0.1193E+03
    -13.024  0.1632E+02  0.1195E+03
    -13.009  0.1639E+02  0.1198E+03
    -12.994  0.1646E+02  0.1200E+03
    -12.979  0.1651E+02  0.1203E+03
    -12.964  0.1655E+02  0.1205E+03
    -12.949  0.1657E+02  0.1208E+03
    -12.934  0.1658E+02  0.1210E+03
    -12.919  0.1658E+02  0.1213E+03
    -12.904  0.1656E+02  0.1215E+03
    -12.889  0.1653E+02  0.1218E+03
    -12.875  0.1649E+02  0.1220E+03
    -12.860  0.1643E+02  0.1223E+03
    -12.845  0.1637E+02  0.1225E+03
    -12.830  0.1630E+02  0.1227E+03
    -12.815  0.1621E+02  0.1230E+03
    -12.800  0.1612E+02  0.1232E+03
    -12.785  0.1601E+02  0.1235E+03
    -12.770  0.1590E+02  0.1237E+03
    -12.755  0.1578E+02  0.1239E+03
    -12.740  0.1564E+02  0.1242E+03
    -12.725  0.1550E+02  0.1244E+03
    -12.710  0.1535E+02  0.1246E+03
    -12.695  0.1518E+02  0.1249E+03
    -12.680  0.1501E+02  0.1251E+03
    -12.665  0.1484E+02  0.1253E+03
    -12.650  0.1465E+02  0.1255E+03
    -12.635  0.1447E+02  0.1257E+03
    -12.620  0.1429E+02  0.1260E+03
    -12.605  0.1411E+02  0.1262E+03
    -12.590  0.1395E+02  0.1264E+03
    -12.575  0.1380E+02  0.1266E+03
    -12.560  0.1368E+02  0.1268E+03
    -12.545  0.1357E+02  0.1270E+03
    -12.530  0.1350E+02  0.1272E+03
    -12.516  0.1347E+02  0.1274E+03
    -12.501  0.1346E+02  0.1276E+03
    -12.486  0.1350E+02  0.1278E+03
    -12.471  0.1357E+02  0.1280E+03
    -12.456  0.1367E+02  0.1282E+03
    -12.441  0.1381E+02  0.1284E+03
    -12.426  0.1398E+02  0.1286E+03
    -12.411  0.1416E+02  0.1288E+03
    -12.396  0.1437E+02  0.1290E+03
    -12.381  0.1459E+02  0.1293E+03
    -12.366  0.1480E+02  0.1295E+03
    -12.351  0.1502E+02  0.1297E+03
    -12.336  0.1522E+02  0.1299E+03
    -12.321  0.1540E+02  0.1302E+03
    -12.306  0.1555E+02  0.1304E+03