  92  92   0   0
  0.2733267E+02  0.1704000E-08  0.1475707E-08  0.1000000E-08  0.5000000E-15
  1.000000000000000E-004
  CAR 
 unknown system                          
      6.03840787    -23.19362123 2000     -1.56243878      1.00000000
    -23.194  0.0000E+00  0.0000E+00
    -23.179  0.0000E+00  0.0000E+00
    -23.164  0.0000E+00  0.0000E+00
    -23.150  0.0000E+00  0.0000E+00
    -23.135  0.0000E+00  0.0000E+00
    -23.121  0.0000E+00  0.0000E+00
    -23.106  0.0000E+00  0.0000E+00
    -23.091  0.0000E+00  0.0000E+00
    -23.077  0.0000E+00  0.0000E+00
    -23.062  0.0000E+00  0.0000E+00
    -23.047  0.0000E+00  0.0000E+00
    -23.033  0.0000E+00  0.0000E+00
    -23.018  0.0000E+00  0.0000E+00
    -23.004  0.0000E+00  0.0000E+00
    -22.989  0.0000E+00  0.0000E+00
    -22.974  0.0000E+00  0.0000E+00
    -22.960  0.0000E+00  0.0000E+00
    -22.945  0.0000E+00  0.0000E+00
    -22.930  0.0000E+00  0.0000E+00
    -22.916  0.0000E+00  0.0000E+00
    -22.901  0.0000E+00  0.0000E+00
    -22.887  0.0000E+00  0.0000E+00
    -22.872  0.0000E+00  0.0000E+00
    -22.857  0.0000E+00  0.0000E+00
    -22.843  0.0000E+00  0.0000E+00
    -22.828  0.0000E+00  0.0000E+00
    -22.813  0.0000E+00  0.0000E+00
    -22.799  0.0000E+00  0.0000E+00
    -22.784  0.0000E+00  0.0000E+00
    -22.770  0.0000E+00  0.0000E+00
    -22.755  0.0000E+00  0.0000E+00
    -22.740  0.0000E+00  0.0000E+00
    -22.726  0.0000E+00  0.0000E+00
    -22.711  0.0000E+00  0.0000E+00
    -22.696  0.0000E+00  0.0000E+00
    -22.682  0.0000E+00  0.0000E+00
    -22.667  0.0000E+00  0.0000E+00
    -22.653  0.0000E+00  0.0000E+00
    -22.638  0.0000E+00  0.0000E+00
    -22.623  0.0000E+00  0.0000E+00
    -22.609  0.0000E+00  0.0000E+00
    -22.594  0.0000E+00  0.0000E+00
    -22.579  0.0000E+00  0.0000E+00
    -22.565  0.0000E+00  0.0000E+00
    -22.550  0.0000E+00  0.0000E+00
    -22.536  0.0000E+00  0.0000E+00
    -22.521  0.0000E+00  0.0000E+00
    -22.506  0.0000E+00  0.0000E+00
    -22.492  0.0000E+00  0.0000E+00
    -22.477  0.0000E+00  0.0000E+00
    -22.462  0.0000E+00  0.0000E+00
    -22.448  0.0000E+00  0.0000E+00
    -22.433  0.0000E+00  0.0000E+00
    -22.419  0.0000E+00  0.0000E+00
    -22.404  0.0000E+00  0.0000E+00
    -22.389  0.0000E+00  0.0000E+00
    -22.375  0.8436E-15  0.1234E-16
    -22.360  0.1687E-14  0.3701E-16
    -22.345  0.8436E-14  0.1604E-15
    -22.331  0.1434E-13  0.3701E-15
    -22.316  0.3121E-13  0.8265E-15
    -22.302  0.7339E-13  0.1900E-14
    -22.287  0.1653E-12  0.4318E-14
    -22.272  0.3754E-12  0.9807E-14
    -22.258  0.8284E-12  0.2192E-13
    -22.243  0.1825E-11  0.4862E-13
    -22.228  0.3966E-11  0.1066E-12
    -22.214  0.8534E-11  0.2314E-12
    -22.199  0.1817E-10  0.4970E-12
    -22.185  0.3827E-10  0.1057E-11
    -22.170  0.7974E-10  0.2223E-11
    -22.155  0.1644E-09  0.4627E-11
    -22.141  0.3355E-09  0.9533E-11
    -22.126  0.6772E-09  0.1944E-10
    -22.111  0.1353E-08  0.3921E-10
    -22.097  0.2673E-08  0.7830E-10
    -22.082  0.5226E-08  0.1547E-09
    -22.068  0.1011E-07  0.3026E-09
    -22.053  0.1935E-07  0.5855E-09
    -22.038  0.3665E-07  0.1121E-08
    -22.024  0.6867E-07  0.2126E-08
    -22.009  0.1273E-06  0.3987E-08
    -21.995  0.2335E-06  0.7402E-08
    -21.980  0.4239E-06  0.1360E-07
    -21.965  0.7612E-06  0.2473E-07
    -21.951  0.1352E-05  0.4451E-07
    -21.936  0.2378E-05  0.7928E-07
    -21.921  0.4136E-05  0.1398E-06
    -21.907  0.7118E-05  0.2438E-06
    -21.892  0.1212E-04  0.4211E-06
    -21.878  0.2042E-04  0.7197E-06
    -21.863  0.3404E-04  0.1217E-05
    -21.848  0.5615E-04  0.2039E-05
    -21.834  0.9163E-04  0.3378E-05
    -21.819  0.1480E-03  0.5542E-05
    -21.804  0.2364E-03  0.8999E-05
    -21.790  0.3737E-03  0.1446E-04
    -21.775  0.5844E-03  0.2301E-04
    -21.761  0.9044E-03  0.3624E-04
    -21.746  0.1385E-02  0.5649E-04
    -21.731  0.2098E-02  0.8717E-04
    -21.717  0.3145E-02  0.1332E-03
    -21.702  0.4665E-02  0.2014E-03
    -21.687  0.6847E-02  0.3015E-03
    -21.673  0.9943E-02  0.4469E-03
    -21.658  0.1429E-01  0.6558E-03
    -21.644  0.2031E-01  0.9528E-03
    -21.629  0.2857E-01  0.1371E-02
    -21.614  0.3977E-01  0.1952E-02
    -21.600  0.5479E-01  0.2753E-02
    -21.585  0.7467E-01  0.3845E-02
    -21.570  0.1007E+00  0.5318E-02
    -21.556  0.1344E+00  0.7284E-02
    -21.541  0.1775E+00  0.9879E-02
    -21.527  0.2320E+00  0.1327E-01
    -21.512  0.3001E+00  0.1766E-01
    -21.497  0.3841E+00  0.2328E-01
    -21.483  0.4865E+00  0.3039E-01
    -21.468  0.6100E+00  0.3931E-01
    -21.453  0.7570E+00  0.5038E-01
    -21.439  0.9298E+00  0.6398E-01
    -21.424  0.1131E+01  0.8051E-01
    -21.410  0.1361E+01  0.1004E+00
    -21.395  0.1622E+01  0.1241E+00
    -21.380  0.1913E+01  0.1521E+00
    -21.366  0.2236E+01  0.1848E+00
    -21.351  0.2587E+01  0.2226E+00
    -21.336  0.2965E+01  0.2660E+00
    -21.322  0.3367E+01  0.3152E+00
    -21.307  0.3789E+01  0.3706E+00
    -21.293  0.4225E+01  0.4324E+00
    -21.278  0.4670E+01  0.5007E+00
    -21.263  0.5119E+01  0.5756E+00
    -21.249  0.5565E+01  0.6569E+00
    -21.234  0.6003E+01  0.7447E+00
    -21.219  0.6428E+01  0.8387E+00
    -21.205  0.6834E+01  0.9387E+00
    -21.190  0.7219E+01  0.1044E+01
    -21.176  0.7578E+01  0.1155E+01
    -21.161  0.7911E+01  0.1271E+01
    -21.146  0.8217E+01  0.1391E+01
    -21.132  0.8496E+01  0.1515E+01
    -21.117  0.8750E+01  0.1643E+01
    -21.102  0.8980E+01  0.1774E+01
    -21.088  0.9189E+01  0.1909E+01
    -21.073  0.9380E+01  0.2046E+01
    -21.059  0.9556E+01  0.2186E+01
    -21.044  0.9718E+01  0.2328E+01
    -21.029  0.9871E+01  0.2472E+01
    -21.015  0.1002E+02  0.2619E+01
    -21.000  0.1015E+02  0.2767E+01
    -20.985  0.1029E+02  0.2917E+01
    -20.971  0.1041E+02  0.3070E+01
    -20.956  0.1054E+02  0.3224E+01
    -20.942  0.1065E+02  0.3380E+01
    -20.927  0.1077E+02  0.3537E+01
    -20.912  0.1088E+02  0.3696E+01
    -20.898  0.1098E+02  0.3857E+01
    -20.883  0.1108E+02  0.4019E+01
    -20.869  0.1117E+02  0.4182E+01
    -20.854  0.1127E+02  0.4347E+01
    -20.839  0.1136E+02  0.4513E+01
    -20.825  0.1144E+02  0.4680E+01
    -20.810  0.1153E+02  0.4849E+01
    -20.795  0.1162E+02  0.5019E+01
    -20.781  0.1171E+02  0.5190E+01
    -20.766  0.1180E+02  0.5362E+01
    -20.752  0.1189E+02  0.5536E+01
    -20.737  0.1199E+02  0.5712E+01
    -20.722  0.1209E+02  0.5888E+01
    -20.708  0.1219E+02  0.6066E+01
    -20.693  0.1229E+02  0.6246E+01
    -20.678  0.1240E+02  0.6428E+01
    -20.664  0.1250E+02  0.6610E+01
    -20.649  0.1261E+02  0.6795E+01
    -20.635  0.1271E+02  0.6981E+01
    -20.620  0.1280E+02  0.7168E+01
    -20.605  0.1289E+02  0.7356E+01
    -20.591  0.1297E+02  0.7546E+01
    -20.576  0.1304E+02  0.7737E+01
    -20.561  0.1310E+02  0.7928E+01
    -20.547  0.1315E+02  0.8121E+01
    -20.532  0.1319E+02  0.8314E+01
    -20.518  0.1322E+02  0.8507E+01
    -20.503  0.1324E+02  0.8701E+01
    -20.488  0.1326E+02  0.8894E+01
    -20.474  0.1328E+02  0.9089E+01
    -20.459  0.1330E+02  0.9283E+01
    -20.444  0.1332E+02  0.9478E+01
    -20.430  0.1336E+02  0.9673E+01
    -20.415  0.1341E+02  0.9869E+01
    -20.401  0.1347E+02  0.1007E+02
    -20.386  0.1355E+02  0.1026E+02
    -20.371  0.1366E+02  0.1046E+02
    -20.357  0.1378E+02  0.1067E+02
    -20.342  0.1392E+02  0.1087E+02
    -20.327  0.1409E+02  0.1108E+02
    -20.313  0.1426E+02  0.1128E+02
    -20.298  0.1445E+02  0.1150E+02
    -20.284  0.1465E+02  0.1171E+02
    -20.269  0.1484E+02  0.1193E+02
    -20.254  0.1504E+02  0.1215E+02
    -20.240  0.1521E+02  0.1237E+02
    -20.225  0.1538E+02  0.1259E+02
    -20.210  0.1552E+02  0.1282E+02
    -20.196  0.1563E+02  0.1305E+02
    -20.181  0.1571E+02  0.1328E+02
    -20.167  0.1576E+02  0.1351E+02
    -20.152  0.1577E+02  0.1374E+02
    -20.137  0.1574E+02  0.1397E+02
    -20.123  0.1568E+02  0.1420E+02
    -20.108  0.1559E+02  0.1443E+02
    -20.093  0.1547E+02  0.1465E+02
    -20.079  0.1533E+02  0.1488E+02
    -20.064  0.1516E+02  0.1510E+02
    -20.050  0.1498E+02  0.1532E+02
    -20.035  0.1479E+02  0.1553E+02
    -20.020  0.1460E+02  0.1575E+02
    -20.006  0.1441E+02  0.1596E+02
    -19.991  0.1423E+02  0.1617E+02
    -19.976  0.1406E+02  0.1637E+02
    -19.962  0.1390E+02  0.1658E+02
    -19.947  0.1376E+02  0.1678E+02
    -19.933  0.1364E+02  0.1698E+02
    -19.918  0.1354E+02  0.1717E+02
    -19.903  0.1347E+02  0.1737E+02
    -19.889  0.1341E+02  0.1757E+02
    -19.874  0.1338E+02  0.1776E+02
    -19.860  0.1337E+02  0.1796E+02
    -19.845  0.1338E+02  0.1815E+02
    -19.830  0.1340E+02  0.1835E+02
    -19.816  0.1345E+02  0.1855E+02
    -19.801  0.1351E+02  0.1875E+02
    -19.786  0.1358E+02  0.1894E+02
    -19.772  0.1367E+02  0.1914E+02
    -19.757  0.1376E+02  0.1934E+02
    -19.743  0.1386E+02  0.1955E+02
    -19.728  0.1397E+02  0.1975E+02
    -19.713  0.1408E+02  0.1996E+02
    -19.699  0.1418E+02  0.2017E+02
    -19.684  0.1429E+02  0.2037E+02
    -19.669  0.1438E+02  0.2058E+02
    -19.655  0.1447E+02  0.2080E+02
    -19.640  0.1455E+02  0.2101E+02
    -19.626  0.1462E+02  0.2122E+02
    -19.611  0.1467E+02  0.2144E+02
    -19.596  0.1470E+02  0.2165E+02
    -19.582  0.1472E+02  0.2187E+02
    -19.567  0.1472E+02  0.2208E+02
    -19.552  0.1470E+02  0.2230E+02
    -19.538  0.1466E+02  0.2251E+02
    -19.523  0.1461E+02  0.2273E+02
    -19.509  0.1454E+02  0.2294E+02
    -19.494  0.1447E+02  0.2315E+02
    -19.479  0.1438E+02  0.2336E+02
    -19.465  0.1428E+02  0.2357E+02
    -19.450  0.1418E+02  0.2378E+02
    -19.435  0.1408E+02  0.2398E+02
    -19.421  0.1398E+02  0.2419E+02
    -19.406  0.1388E+02  0.2439E+02
    -19.392  0.1379E+02  0.2459E+02
    -19.377  0.1371E+02  0.2479E+02
    -19.362  0.1363E+02  0.2499E+02
    -19.348  0.1357E+02  0.2519E+02
    -19.333  0.1351E+02  0.2539E+02
    -19.318  0.1347E+02  0.2558E+02
    -19.304  0.1344E+02  0.2578E+02
    -19.289  0.1342E+02  0.2598E+02
    -19.275  0.1341E+02  0.2617E+02
    -19.260  0.1341E+02  0.2637E+02
    -19.245  0.1343E+02  0.2657E+02
    -19.231  0.1344E+02  0.2676E+02
    -19.216  0.1347E+02  0.2696E+02
    -19.201  0.1350E+02  0.2716E+02
    -19.187  0.1353E+02  0.2735E+02
    -19.172  0.1357E+02  0.2755E+02
    -19.158  0.1360E+02  0.2775E+02
    -19.143  0.1364E+02  0.2795E+02
    -19.128  0.1368E+02  0.2815E+02
    -19.114  0.1371E+02  0.2835E+02
    -19.099  0.1374E+02  0.2855E+02
    -19.084  0.1377E+02  0.2875E+02
    -19.070  0.1379E+02  0.2896E+02
    -19.055  0.1380E+02  0.2916E+02
    -19.041  0.1381E+02  0.2936E+02
    -19.026  0.1381E+02  0.2956E+02
    -19.011  0.1380E+02  0.2976E+02
    -18.997  0.1378E+02  0.2996E+02
    -18.982  0.1375E+02  0.3017E+02
    -18.967  0.1371E+02  0.3037E+02
    -18.953  0.1367E+02  0.3057E+02
    -18.938  0.1361E+02  0.3076E+02
    -18.924  0.1355E+02  0.3096E+02
    -18.909  0.1349E+02  0.3116E+02
    -18.894  0.1342E+02  0.3136E+02
    -18.880  0.1334E+02  0.3155E+02
    -18.865  0.1327E+02  0.3175E+02
    -18.850  0.1320E+02  0.3194E+02
    -18.836  0.1314E+02  0.3213E+02
    -18.821  0.1308E+02  0.3232E+02
    -18.807  0.1302E+02  0.3251E+02
    -18.792  0.1298E+02  0.3270E+02
    -18.777  0.1295E+02  0.3289E+02
    -18.763  0.1293E+02  0.3308E+02
    -18.748  0.1293E+02  0.3327E+02
    -18.734  0.1294E+02  0.3346E+02
    -18.719  0.1296E+02  0.3365E+02
    -18.704  0.1300E+02  0.3384E+02
    -18.690  0.1306E+02  0.3403E+02
    -18.675  0.1313E+02  0.3422E+02
    -18.660  0.1322E+02  0.3442E+02
    -18.646  0.1332E+02  0.3461E+02
    -18.631  0.1344E+02  0.3481E+02
    -18.617  0.1357E+02  0.3500E+02
    -18.602  0.1371E+02  0.3521E+02
    -18.587  0.1387E+02  0.3541E+02
    -18.573  0.1403E+02  0.3561E+02
    -18.558  0.1421E+02  0.3582E+02
    -18.543  0.1439E+02  0.3603E+02
    -18.529  0.1458E+02  0.3624E+02
    -18.514  0.1477E+02  0.3646E+02
    -18.500  0.1496E+02  0.3668E+02
    -18.485  0.1515E+02  0.3690E+02
    -18.470  0.1532E+02  0.3712E+02
    -18.456  0.1548E+02  0.3735E+02
    -18.441  0.1563E+02  0.3758E+02
    -18.426  0.1575E+02  0.3781E+02
    -18.412  0.1584E+02  0.3804E+02
    -18.397  0.1591E+02  0.3827E+02
    -18.383  0.1594E+02  0.3851E+02
    -18.368  0.1593E+02  0.3874E+02
    -18.353  0.1588E+02  0.3897E+02
    -18.339  0.1580E+02  0.3920E+02
    -18.324  0.1568E+02  0.3943E+02
    -18.309  0.1552E+02  0.3966E+02
    -18.295  0.1533E+02  0.3988E+02
    -18.280  0.1512E+02  0.4011E+02
    -18.266  0.1488E+02  0.4032E+02
    -18.251  0.1463E+02  0.4054E+02
    -18.236  0.1437E+02  0.4075E+02
    -18.222  0.1411E+02  0.4095E+02
    -18.207  0.1384E+02  0.4116E+02
    -18.192  0.1359E+02  0.4135E+02
    -18.178  0.1334E+02  0.4155E+02
    -18.163  0.1312E+02  0.4174E+02
    -18.149  0.1291E+02  0.4193E+02
    -18.134  0.1273E+02  0.4212E+02
    -18.119  0.1257E+02  0.4230E+02
    -18.105  0.1244E+02  0.4248E+02
    -18.090  0.1233E+02  0.4266E+02
    -18.075  0.1226E+02  0.4284E+02
    -18.061  0.1222E+02  0.4302E+02
    -18.046  0.1220E+02  0.4320E+02
    -18.032  0.1221E+02  0.4338E+02
    -18.017  0.1225E+02  0.4356E+02
    -18.002  0.1232E+02  0.4374E+02
    -17.988  0.1241E+02  0.4392E+02
    -17.973  0.1252E+02  0.4410E+02
    -17.958  0.1266E+02  0.4429E+02
    -17.944  0.1281E+02  0.4447E+02
    -17.929  0.1297E+02  0.4466E+02
    -17.915  0.1314E+02  0.4486E+02
    -17.900  0.1332E+02  0.4505E+02
    -17.885  0.1350E+02  0.4525E+02
    -17.871  0.1368E+02  0.4545E+02
    -17.856  0.1387E+02  0.4565E+02
    -17.841  0.1404E+02  0.4586E+02
    -17.827  0.1421E+02  0.4606E+02
    -17.812  0.1437E+02  0.4627E+02
    -17.798  0.1453E+02  0.4649E+02
    -17.783  0.1467E+02  0.4670E+02
    -17.768  0.1481E+02  0.4692E+02
    -17.754  0.1495E+02  0.4714E+02
    -17.739  0.1508E+02  0.4736E+02
    -17.724  0.1520E+02  0.4758E+02
    -17.710  0.1532E+02  0.4780E+02
    -17.695  0.1544E+02  0.4803E+02
    -17.681  0.1556E+02  0.4826E+02
    -17.666  0.1567E+02  0.4849E+02
    -17.651  0.1577E+02  0.4872E+02
    -17.637  0.1586E+02  0.4895E+02
    -17.622  0.1594E+02  0.4918E+02
    -17.608  0.1600E+02  0.4941E+02
    -17.593  0.1604E+02  0.4965E+02
    -17.578  0.1606E+02  0.4988E+02
    -17.564  0.1605E+02  0.5012E+02
    -17.549  0.1602E+02  0.5035E+02
    -17.534  0.1595E+02  0.5059E+02
    -17.520  0.1586E+02  0.5082E+02
    -17.505  0.1574E+02  0.5105E+02
    -17.491  0.1559E+02  0.5128E+02
    -17.476  0.1543E+02  0.5150E+02
    -17.461  0.1525E+02  0.5173E+02
    -17.447  0.1506E+02  0.5195E+02
    -17.432  0.1488E+02  0.5216E+02
    -17.417  0.1470E+02  0.5238E+02
    -17.403  0.1453E+02  0.5259E+02
    -17.388  0.1438E+02  0.5280E+02
    -17.374  0.1426E+02  0.5301E+02
    -17.359  0.1416E+02  0.5322E+02
    -17.344  0.1410E+02  0.5342E+02
    -17.330  0.1407E+02  0.5363E+02
    -17.315  0.1407E+02  0.5383E+02
    -17.300  0.1409E+02  0.5404E+02
    -17.286  0.1415E+02  0.5425E+02
    -17.271  0.1422E+02  0.5446E+02
    -17.257  0.1430E+02  0.5466E+02
    -17.242  0.1440E+02  0.5487E+02
    -17.227  0.1449E+02  0.5509E+02
    -17.213  0.1458E+02  0.5530E+02
    -17.198  0.1466E+02  0.5551E+02
    -17.183  0.1472E+02  0.5573E+02
    -17.169  0.1477E+02  0.5595E+02
    -17.154  0.1479E+02  0.5616E+02
    -17.140  0.1480E+02  0.5638E+02
    -17.125  0.1478E+02  0.5659E+02
    -17.110  0.1475E+02  0.5681E+02
    -17.096  0.1471E+02  0.5703E+02
    -17.081  0.1465E+02  0.5724E+02
    -17.066  0.1459E+02  0.5745E+02
    -17.052  0.1454E+02  0.5767E+02
    -17.037  0.1448E+02  0.5788E+02
    -17.023  0.1444E+02  0.5809E+02
    -17.008  0.1441E+02  0.5830E+02
    -16.993  0.1440E+02  0.5851E+02
    -16.979  0.1442E+02  0.5872E+02
    -16.964  0.1446E+02  0.5893E+02
    -16.949  0.1452E+02  0.5914E+02
    -16.935  0.1461E+02  0.5936E+02
    -16.920  0.1472E+02  0.5957E+02
    -16.906  0.1486E+02  0.5979E+02
    -16.891  0.1502E+02  0.6001E+02
    -16.876  0.1519E+02  0.6023E+02
    -16.862  0.1537E+02  0.6046E+02
    -16.847  0.1556E+02  0.6068E+02
    -16.832  0.1575E+02  0.6092E+02
    -16.818  0.1594E+02  0.6115E+02
    -16.803  0.1611E+02  0.6138E+02
    -16.789  0.1627E+02  0.6162E+02
    -16.774  0.1641E+02  0.6186E+02
    -16.759  0.1652E+02  0.6210E+02
    -16.745  0.1661E+02  0.6235E+02
    -16.730  0.1667E+02  0.6259E+02
    -16.715  0.1670E+02  0.6283E+02
    -16.701  0.1670E+02  0.6308E+02
    -16.686  0.1667E+02  0.6332E+02
    -16.672  0.1662E+02  0.6356E+02
    -16.657  0.1655E+02  0.6381E+02
    -16.642  0.1646E+02  0.6405E+02
    -16.628  0.1636E+02  0.6429E+02
    -16.613  0.1626E+02  0.6452E+02
    -16.599  0.1617E+02  0.6476E+02
    -16.584  0.1607E+02  0.6500E+02
    -16.569  0.1599E+02  0.6523E+02
    -16.555  0.1593E+02  0.6546E+02
    -16.540  0.1588E+02  0.6570E+02
    -16.525  0.1585E+02  0.6593E+02
    -16.511  0.1584E+02  0.6616E+02
    -16.496  0.1584E+02  0.6639E+02
    -16.482  0.1586E+02  0.6662E+02
    -16.467  0.1590E+02  0.6685E+02
    -16.452  0.1594E+02  0.6709E+02
    -16.438  0.1599E+02  0.6732E+02
    -16.423  0.1604E+02  0.6756E+02
    -16.408  0.1609E+02  0.6779E+02
    -16.394  0.1613E+02  0.6803E+02
    -16.379  0.1616E+02  0.6826E+02
    -16.365  0.1618E+02  0.6850E+02
    -16.350  0.1618E+02  0.6874E+02
    -16.335  0.1617E+02  0.6897E+02
    -16.321  0.1614E+02  0.6921E+02
    -16.306  0.1609E+02  0.6944E+02
    -16.291  0.1602E+02  0.6968E+02
    -16.277  0.1594E+02  0.6991E+02
    -16.262  0.1584E+02  0.7014E+02
    -16.248  0.1574E+02  0.7037E+02
    -16.233  0.1563E+02  0.7060E+02
    -16.218  0.1552E+02  0.7083E+02
    -16.204  0.1541E+02  0.7105E+02
    -16.189  0.1532E+02  0.7128E+02
    -16.174  0.1523E+02  0.7150E+02
    -16.160  0.1517E+02  0.7172E+02
    -16.145  0.1513E+02  0.7194E+02
    -16.131  0.1512E+02  0.7217E+02
    -16.116  0.1515E+02  0.7239E+02
    -16.101  0.1521E+02  0.7261E+02
    -16.087  0.1531E+02  0.7283E+02
    -16.072  0.1545E+02  0.7306E+02
    -16.057  0.1563E+02  0.7329E+02
    -16.043  0.1585E+02  0.7352E+02
    -16.028  0.1610E+02  0.7376E+02
    -16.014  0.1637E+02  0.7399E+02
    -15.999  0.1667E+02  0.7424E+02
    -15.984  0.1698E+02  0.7449E+02
    -15.970  0.1729E+02  0.7474E+02
    -15.955  0.1760E+02  0.7500E+02
    -15.940  0.1790E+02  0.7526E+02
    -15.926  0.1816E+02  0.7552E+02
    -15.911  0.1840E+02  0.7579E+02
    -15.897  0.1860E+02  0.7607E+02
    -15.882  0.1875E+02  0.7634E+02
    -15.867  0.1884E+02  0.7662E+02
    -15.853  0.1889E+02  0.7689E+02
    -15.838  0.1888E+02  0.7717E+02
    -15.823  0.1882E+02  0.7744E+02
    -15.809  0.1870E+02  0.7772E+02
    -15.794  0.1854E+02  0.7799E+02
    -15.780  0.1833E+02  0.7826E+02
    -15.765  0.1808E+02  0.7852E+02
    -15.750  0.1779E+02  0.7878E+02
    -15.736  0.1748E+02  0.7904E+02
    -15.721  0.1714E+02  0.7929E+02
    -15.706  0.1678E+02  0.7953E+02
    -15.692  0.1641E+02  0.7977E+02
    -15.677  0.1603E+02  0.8001E+02
    -15.663  0.1564E+02  0.8023E+02
    -15.648  0.1525E+02  0.8046E+02
    -15.633  0.1486E+02  0.8068E+02
    -15.619  0.1447E+02  0.8089E+02
    -15.604  0.1408E+02  0.8109E+02
    -15.589  0.1369E+02  0.8129E+02
    -15.575  0.1332E+02  0.8149E+02
    -15.560  0.1295E+02  0.8168E+02
    -15.546  0.1259E+02  0.8186E+02
    -15.531  0.1225E+02  0.8204E+02
    -15.516  0.1192E+02  0.8221E+02
    -15.502  0.1161E+02  0.8238E+02
    -15.487  0.1133E+02  0.8255E+02
    -15.473  0.1108E+02  0.8271E+02
    -15.458  0.1086E+02  0.8287E+02
    -15.443  0.1067E+02  0.8303E+02
    -15.429  0.1052E+02  0.8318E+02
    -15.414  0.1041E+02  0.8333E+02
    -15.399  0.1033E+02  0.8348E+02
    -15.385  0.1030E+02  0.8363E+02
    -15.370  0.1031E+02  0.8379E+02
    -15.356  0.1036E+02  0.8394E+02
    -15.341  0.1045E+02  0.8409E+02
    -15.326  0.1056E+02  0.8424E+02
    -15.312  0.1070E+02  0.8440E+02
    -15.297  0.1086E+02  0.8456E+02
    -15.282  0.1104E+02  0.8472E+02
    -15.268  0.1123E+02  0.8489E+02
    -15.253  0.1142E+02  0.8505E+02
    -15.239  0.1160E+02  0.8522E+02
    -15.224  0.1178E+02  0.8539E+02
    -15.209  0.1195E+02  0.8557E+02
    -15.195  0.1210E+02  0.8575E+02
    -15.180  0.1223E+02  0.8592E+02
    -15.165  0.1233E+02  0.8610E+02
    -15.151  0.1241E+02  0.8629E+02
    -15.136  0.1247E+02  0.8647E+02
    -15.122  0.1251E+02  0.8665E+02
    -15.107  0.1252E+02  0.8683E+02
    -15.092  0.1251E+02  0.8702E+02
    -15.078  0.1249E+02  0.8720E+02
    -15.063  0.1245E+02  0.8738E+02
    -15.048  0.1240E+02  0.8756E+02
    -15.034  0.1234E+02  0.8774E+02
    -15.019  0.1227E+02  0.8792E+02
    -15.005  0.1220E+02  0.8810E+02
    -14.990  0.1213E+02  0.8828E+02
    -14.975  0.1207E+02  0.8846E+02
    -14.961  0.1201E+02  0.8863E+02
    -14.946  0.1196E+02  0.8881E+02
    -14.931  0.1192E+02  0.8898E+02
    -14.917  0.1189E+02  0.8915E+02
    -14.902  0.1187E+02  0.8933E+02
    -14.888  0.1186E+02  0.8950E+02
    -14.873  0.1186E+02  0.8967E+02
    -14.858  0.1187E+02  0.8985E+02
    -14.844  0.1189E+02  0.9002E+02
    -14.829  0.1192E+02  0.9020E+02
    -14.814  0.1196E+02  0.9037E+02
    -14.800  0.1199E+02  0.9055E+02
    -14.785  0.1203E+02  0.9072E+02
    -14.771  0.1207E+02  0.9090E+02
    -14.756  0.1210E+02  0.9108E+02
    -14.741  0.1213E+02  0.9125E+02
    -14.727  0.1215E+02  0.9143E+02
    -14.712  0.1216E+02  0.9161E+02
    -14.697  0.1217E+02  0.9179E+02
    -14.683  0.1216E+02  0.9196E+02
    -14.668  0.1215E+02  0.9214E+02
    -14.654  0.1213E+02  0.9232E+02
    -14.639  0.1211E+02  0.9250E+02
    -14.624  0.1208E+02  0.9267E+02
    -14.610  0.1206E+02  0.9285E+02
    -14.595  0.1205E+02  0.9303E+02
    -14.580  0.1204E+02  0.9320E+02
    -14.566  0.1205E+02  0.9338E+02
    -14.551  0.1208E+02  0.9356E+02
    -14.537  0.1212E+02  0.9373E+02
    -14.522  0.1219E+02  0.9391E+02
    -14.507  0.1227E+02  0.9409E+02
    -14.493  0.1238E+02  0.9427E+02
    -14.478  0.1252E+02  0.9445E+02
    -14.463  0.1267E+02  0.9464E+02
    -14.449  0.1285E+02  0.9483E+02
    -14.434  0.1305E+02  0.9502E+02
    -14.420  0.1326E+02  0.9521E+02
    -14.405  0.1349E+02  0.9541E+02
    -14.390  0.1373E+02  0.9561E+02
    -14.376  0.1398E+02  0.9581E+02
    -14.361  0.1424E+02  0.9602E+02
    -14.347  0.1451E+02  0.9624E+02
    -14.332  0.1478E+02  0.9645E+02
    -14.317  0.1506E+02  0.9667E+02
    -14.303  0.1534E+02  0.9690E+02
    -14.288  0.1561E+02  0.9712E+02
    -14.273  0.1589E+02  0.9736E+02
    -14.259  0.1617E+02  0.9759E+02
    -14.244  0.1644E+02  0.9783E+02
    -14.230  0.1670E+02  0.9808E+02
    -14.215  0.1696E+02  0.9833E+02
    -14.200  0.1721E+02  0.9858E+02
    -14.186  0.1744E+02  0.9883E+02
    -14.171  0.1766E+02  0.9909E+02
    -14.156  0.1787E+02  0.9935E+02
    -14.142  0.1806E+02  0.9962E+02
    -14.127  0.1822E+02  0.9988E+02
    -14.113  0.1837E+02  0.1002E+03
    -14.098  0.1849E+02  0.1004E+03
    -14.083  0.1859E+02  0.1007E+03
    -14.069  0.1867E+02  0.1010E+03
    -14.054  0.1872E+02  0.1012E+03
    -14.039  0.1876E+02  0.1015E+03
    -14.025  0.1877E+02  0.1018E+03
    -14.010  0.1877E+02  0.1021E+03
    -13.996  0.1875E+02  0.1023E+03
    -13.981  0.1871E+02  0.1026E+03
    -13.966  0.1867E+02  0.1029E+03
    -13.952  0.1862E+02  0.1032E+03
    -13.937  0.1856E+02  0.1034E+03
    -13.922  0.1850E+02  0.1037E+03
    -13.908  0.1843E+02  0.1040E+03
    -13.893  0.1836E+02  0.1042E+03
    -13.879  0.1829E+02  0.1045E+03
    -13.864  0.1822E+02  0.1048E+03
    -13.849  0.1814E+02  0.1050E+03
    -13.835  0.1806E+02  0.1053E+03
    -13.820  0.1796E+02  0.1056E+03
    -13.805  0.1786E+02  0.1058E+03
    -13.791  0.1775E+02  0.1061E+03
    -13.776  0.1763E+02  0.1063E+03
    -13.762  0.1750E+02  0.1066E+03
    -13.747  0.1735E+02  0.1069E+03
    -13.732  0.1719E+02  0.1071E+03
    -13.718  0.1702E+02  0.1074E+03
    -13.703  0.1683E+02  0.1076E+03
    -13.688  0.1664E+02  0.1078E+03
    -13.674  0.1645E+02  0.1081E+03
    -13.659  0.1625E+02  0.1083E+03
    -13.645  0.1605E+02  0.1086E+03
    -13.630  0.1586E+02  0.1088E+03
    -13.615  0.1567E+02  0.1090E+03
    -13.601  0.1550E+02  0.1092E+03
    -13.586  0.1533E+02  0.1095E+03
    -13.571  0.1519E+02  0.1097E+03
    -13.557  0.1506E+02  0.1099E+03
    -13.542  0.1495E+02  0.1101E+03
    -13.528  0.1486E+02  0.1103E+03
    -13.513  0.1479E+02  0.1106E+03
    -13.498  0.1473E+02  0.1108E+03
    -13.484  0.1470E+02  0.1110E+03
    -13.469  0.1469E+02  0.1112E+03
    -13.454  0.1469E+02  0.1114E+03
    -13.440  0.1470E+02  0.1116E+03
    -13.425  0.1474E+02  0.1118E+03
    -13.411  0.1478E+02  0.1121E+03
    -13.396  0.1483E+02  0.1123E+03
    -13.381  0.1489E+02  0.1125E+03
    -13.367  0.1497E+02  0.1127E+03
    -13.352  0.1504E+02  0.1129E+03
    -13.337  0.1512E+02  0.1132E+03
    -13.323  0.1521E+02  0.1134E+03
    -13.308  0.1529E+02  0.1136E+03
    -13.294  0.1537E+02  0.1138E+03
    -13.279  0.1546E+02  0.1141E+03
    -13.264  0.1553E+02  0.1143E+03
    -13.250  0.1561E+02  0.1145E+03
    -13.235  0.1567E+02  0.1147E+03
    -13.221  0.1573E+02  0.1150E+03
    -13.206  0.1577E+02  0.1152E+03
    -13.191  0.1581E+02  0.1154E+03
    -13.177  0.1583E+02  0.1157E+03
    -13.162  0.1583E+02  0.1159E+03
    -13.147  0.1582E+02  0.1161E+03
    -13.133  0.1579E+02  0.1164E+03
    -13.118  0.1574E+02  0.1166E+03
    -13.104  0.1567E+02  0.1168E+03
    -13.089  0.1559E+02  0.1170E+03
    -13.074  0.1550E+02  0.1173E+03
    -13.060  0.1539E+02  0.1175E+03
    -13.045  0.1527E+02  0.1177E+03
    -13.030  0.1514E+02  0.1179E+03
    -13.016  0.1501E+02  0.1182E+03
    -13.001  0.1488E+02  0.1184E+03
    -12.987  0.1476E+02  0.1186E+03
    -12.972  0.1464E+02  0.1188E+03
    -12.957  0.1454E+02  0.1190E+03
    -12.943  0.1444E+02  0.1192E+03
    -12.928  0.1437E+02  0.1194E+03
    -12.913  0.1430E+02  0.1197E+03
    -12.899  0.1426E+02  0.1199E+03
    -12.884  0.1422E+02  0.1201E+03
    -12.870  0.1420E+02  0.1203E+03
    -12.855  0.1419E+02  0.1205E+03
    -12.840  0.1418E+02  0.1207E+03
    -12.826  0.1418E+02  0.1209E+03
    -12.811  0.1417E+02  0.1211E+03
    -12.796  0.1415E+02  0.1213E+03
    -12.782  0.1412E+02  0.1215E+03
    -12.767  0.1408E+02  0.1217E+03
    -12.753  0.1403E+02  0.1219E+03
    -12.738  0.1396E+02  0.1221E+03
    -12.723  0.1387E+02  0.1223E+03
    -12.709  0.1378E+02  0.1225E+03
    -12.694  0.1367E+02  0.1227E+03
    -12.679  0.1356E+02  0.1229E+03
    -12.665  0.1345E+02  0.1231E+03
    -12.650  0.1334E+02  0.1233E+03
    -12.636  0.1324E+02  0.1235E+03
    -12.621  0.1316E+02  0.1237E+03
    -12.606  0.1309E+02  0.1239E+03
    -12.592  0.1305E+02  0.1241E+03
    -12.577  0.1303E+02  0.1243E+03
    -12.562  0.1304E+02  0.1245E+03
    -12.548  0.1308E+02  0.1247E+03
    -12.533  0.1314E+02  0.1249E+03
    -12.519  0.1322E+02  0.1251E+03
    -12.504  0.1332E+02  0.1253E+03
    -12.489  0.1343E+02  0.1254E+03
    -12.475  0.1355E+02  0.1256E+03
    -12.460  0.1367E+02  0.1258E+03
    -12.445  0.1379E+02  0.1260E+03
    -12.431  0.1389E+02  0.1262E+03
    -12.416  0.1399E+02  0.1265E+03
    -12.402  0.1407E+02  0.1267E+03
    -12.387  0.1414E+02  0.1269E+03
    -12.372  0.1418E+02  0.1271E+03
    -12.358  0.1421E+02  0.1273E+03
    -12.343  0.1422E+02  0.1275E+03
    -12.328  0.1422E+02  0.1277E+03
    -12.314  0.1421E+02  0.1279E+03
    -12.299  0.1420E+02  0.1281E+03
    -12.285  0.1418E+02  0.1283E+03
    -12.270  0.1416E+02  0.1285E+03
    -12.255  0.1414E+02  0.1287E+03
    -12.241  0.1413E+02  0.1289E+03
    -12.226  0.1414E+02  0.1291E+03
    -12.212  0.1415E+02  0.1294E+03
    -12.197  0.1417E+02  0.1296E+03
    -12.182  0.1421E+02  0.1298E+03
    -12.168  0.1425E+02  0.1300E+03
    -12.153  0.1430E+02  0.1302E+03
    -12.138  0.1436E+02  0.1304E+03
    -12.124  0.1442E+02  0.1306E+03
    -12.109  0.1448E+02  0.1308E+03
    -12.095  0.1454E+02  0.1310E+03
    -12.080  0.1459E+02  0.1312E+03
    -12.065  0.1463E+02  0.1315E+03
    -12.051  0.1466E+02  0.1317E+03
    -12.036  0.1469E+02  0.1319E+03
    -12.021  0.1471E+02  0.1321E+03
    -12.007  0.1471E+02  0.1323E+03
    -11.992  0.1471E+02  0.1325E+03
    -11.978  0.1471E+02  0.1327E+03
    -11.963  0.1470E+02  0.1330E+03
    -11.948  0.1470E+02  0.1332E+03
    -11.934  0.1470E+02  0.1334E+03
    -11.919  0.1470E+02  0.1336E+03
    -11.904  0.1472E+02  0.1338E+03
    -11.890  0.1474E+02  0.1340E+03
    -11.875  0.1478E+02  0.1343E+03
    -11.861  0.1483E+02  0.1345E+03
    -11.846  0.1490E+02  0.1347E+03
    -11.831  0.1497E+02  0.1349E+03
    -11.817  0.1506E+02  0.1351E+03
    -11.802  0.1515E+02  0.1354E+03
    -11.787  0.1526E+02  0.1356E+03
    -11.773  0.1537E+02  0.1358E+03
    -11.758  0.1548E+02  0.1360E+03
    -11.744  0.1559E+02  0.1363E+03
    -11.729  0.1570E+02  0.1365E+03
    -11.714  0.1580E+02  0.1367E+03
    -11.700  0.1590E+02  0.1369E+03
    -11.685  0.1599E+02  0.1372E+03
    -11.670  0.1608E+02  0.1374E+03
    -11.656  0.1615E+02  0.1377E+03
    -11.641  0.1622E+02  0.1379E+03
    -11.627  0.1628E+02  0.1381E+03
    -11.612  0.1634E+02  0.1384E+03
    -11.597  0.1639E+02  0.1386E+03
    -11.583  0.1643E+02  0.1388E+03
    -11.568  0.1647E+02  0.1391E+03
    -11.553  0.1651E+02  0.1393E+03
    -11.539  0.1654E+02  0.1396E+03
    -11.524  0.1657E+02  0.1398E+03
    -11.510  0.1661E+02  0.1401E+03
    -11.495  0.1665E+02  0.1403E+03
    -11.480  0.1668E+02  0.1405E+03
    -11.466  0.1672E+02  0.1408E+03
    -11.451  0.1676E+02  0.1410E+03
    -11.436  0.1679E+02  0.1413E+03
    -11.422  0.1683E+02  0.1415E+03
    -11.407  0.1687E+02  0.1418E+03
    -11.393  0.1690E+02  0.1420E+03
    -11.378  0.1693E+02  0.1423E+03
    -11.363  0.1696E+02  0.1425E+03
    -11.349  0.1698E+02  0.1428E+03
    -11.334  0.1700E+02  0.1430E+03
    -11.319  0.1701E+02  0.1433E+03
    -11.305  0.1701E+02  0.1435E+03
    -11.290  0.1701E+02  0.1438E+03
    -11.276  0.1700E+02  0.1440E+03
    -11.261  0.1698E+02  0.1443E+03
    -11.246  0.1696E+02  0.1445E+03
    -11.232  0.1693E+02  0.1447E+03
    -11.217  0.1690E+02  0.1450E+03
    -11.202  0.1687E+02  0.1452E+03
    -11.188  0.1684E+02  0.1455E+03
    -11.173  0.1682E+02  0.1457E+03
    -11.159  0.1679E+02  0.1460E+03
    -11.144  0.1678E+02  0.1462E+03
    -11.129  0.1677E+02  0.1465E+03