 155 155   0   0
  0.5278915E+02  0.2875259E-08  0.1422884E-08  0.2000000E-08  0.5000000E-15
  1.000000000000000E-004
  CAR 
 unknown system                          
      2.99294547    -24.31049339 2000     -3.88112490      1.00000000
    -24.310  0.0000E+00  0.0000E+00
    -24.297  0.0000E+00  0.0000E+00
    -24.283  0.0000E+00  0.0000E+00
    -24.270  0.0000E+00  0.0000E+00
    -24.256  0.0000E+00  0.0000E+00
    -24.242  0.0000E+00  0.0000E+00
    -24.229  0.0000E+00  0.0000E+00
    -24.215  0.0000E+00  0.0000E+00
    -24.201  0.0000E+00  0.0000E+00
    -24.188  0.0000E+00  0.0000E+00
    -24.174  0.0000E+00  0.0000E+00
    -24.160  0.0000E+00  0.0000E+00
    -24.147  0.0000E+00  0.0000E+00
    -24.133  0.0000E+00  0.0000E+00
    -24.119  0.0000E+00  0.0000E+00
    -24.106  0.0000E+00  0.0000E+00
    -24.092  0.0000E+00  0.0000E+00
    -24.078  0.0000E+00  0.0000E+00
    -24.065  0.0000E+00  0.0000E+00
    -24.051  0.0000E+00  0.0000E+00
    -24.037  0.0000E+00  0.0000E+00
    -24.024  0.0000E+00  0.0000E+00
    -24.010  0.0000E+00  0.0000E+00
    -23.996  0.0000E+00  0.0000E+00
    -23.983  0.0000E+00  0.0000E+00
    -23.969  0.0000E+00  0.0000E+00
    -23.955  0.0000E+00  0.0000E+00
    -23.942  0.0000E+00  0.0000E+00
    -23.928  0.0000E+00  0.0000E+00
    -23.914  0.0000E+00  0.0000E+00
    -23.901  0.0000E+00  0.0000E+00
    -23.887  0.0000E+00  0.0000E+00
    -23.873  0.0000E+00  0.0000E+00
    -23.860  0.0000E+00  0.0000E+00
    -23.846  0.0000E+00  0.0000E+00
    -23.832  0.0000E+00  0.0000E+00
    -23.819  0.0000E+00  0.0000E+00
    -23.805  0.0000E+00  0.0000E+00
    -23.791  0.0000E+00  0.0000E+00
    -23.778  0.0000E+00  0.0000E+00
    -23.764  0.0000E+00  0.0000E+00
    -23.750  0.0000E+00  0.0000E+00
    -23.737  0.0000E+00  0.0000E+00
    -23.723  0.0000E+00  0.0000E+00
    -23.710  0.0000E+00  0.0000E+00
    -23.696  0.0000E+00  0.0000E+00
    -23.682  0.0000E+00  0.0000E+00
    -23.669  0.0000E+00  0.0000E+00
    -23.655  0.0000E+00  0.0000E+00
    -23.641  0.0000E+00  0.0000E+00
    -23.628  0.0000E+00  0.0000E+00
    -23.614  0.0000E+00  0.0000E+00
    -23.600  0.0000E+00  0.0000E+00
    -23.587  0.0000E+00  0.0000E+00
    -23.573  0.0000E+00  0.0000E+00
    -23.559  0.0000E+00  0.0000E+00
    -23.546  0.0000E+00  0.0000E+00
    -23.532  0.0000E+00  0.0000E+00
    -23.518  0.0000E+00  0.0000E+00
    -23.505  0.0000E+00  0.0000E+00
    -23.491  0.2709E-14  0.3701E-16
    -23.477  0.0000E+00  0.3701E-16
    -23.464  0.5419E-14  0.1110E-15
    -23.450  0.1626E-13  0.3331E-15
    -23.436  0.2709E-13  0.7031E-15
    -23.423  0.6503E-13  0.1591E-14
    -23.409  0.1328E-12  0.3405E-14
    -23.395  0.2899E-12  0.7364E-14
    -23.382  0.6042E-12  0.1562E-13
    -23.368  0.1264E-11  0.3287E-13
    -23.354  0.2622E-11  0.6869E-13
    -23.341  0.5371E-11  0.1420E-12
    -23.327  0.1091E-10  0.2911E-12
    -23.313  0.2197E-10  0.5912E-12
    -23.300  0.4383E-10  0.1190E-11
    -23.286  0.8664E-10  0.2373E-11
    -23.272  0.1697E-09  0.4691E-11
    -23.259  0.3293E-09  0.9188E-11
    -23.245  0.6331E-09  0.1784E-10
    -23.231  0.1206E-08  0.3431E-10
    -23.218  0.2277E-08  0.6541E-10
    -23.204  0.4259E-08  0.1236E-09
    -23.190  0.7895E-08  0.2314E-09
    -23.177  0.1450E-07  0.4294E-09
    -23.163  0.2638E-07  0.7898E-09
    -23.150  0.4757E-07  0.1439E-08
    -23.136  0.8499E-07  0.2600E-08
    -23.122  0.1504E-06  0.4655E-08
    -23.109  0.2639E-06  0.8260E-08
    -23.095  0.4587E-06  0.1453E-07
    -23.081  0.7900E-06  0.2532E-07
    -23.068  0.1348E-05  0.4373E-07
    -23.054  0.2280E-05  0.7487E-07
    -23.040  0.3821E-05  0.1271E-06
    -23.027  0.6344E-05  0.2137E-06
    -23.013  0.1044E-04  0.3563E-06
    -22.999  0.1702E-04  0.5887E-06
    -22.986  0.2749E-04  0.9642E-06
    -22.972  0.4402E-04  0.1565E-05
    -22.958  0.6983E-04  0.2519E-05
    -22.945  0.1098E-03  0.4019E-05
    -22.931  0.1710E-03  0.6355E-05
    -22.917  0.2640E-03  0.9961E-05
    -22.904  0.4039E-03  0.1548E-04
    -22.890  0.6124E-03  0.2384E-04
    -22.876  0.9202E-03  0.3641E-04
    -22.863  0.1370E-02  0.5513E-04
    -22.849  0.2022E-02  0.8274E-04
    -22.835  0.2957E-02  0.1231E-03
    -22.822  0.4286E-02  0.1817E-03
    -22.808  0.6157E-02  0.2658E-03
    -22.794  0.8765E-02  0.3855E-03
    -22.781  0.1237E-01  0.5544E-03
    -22.767  0.1730E-01  0.7907E-03
    -22.753  0.2398E-01  0.1118E-02
    -22.740  0.3296E-01  0.1568E-02
    -22.726  0.4489E-01  0.2182E-02
    -22.712  0.6062E-01  0.3010E-02
    -22.699  0.8114E-01  0.4118E-02
    -22.685  0.1077E+00  0.5589E-02
    -22.671  0.1417E+00  0.7524E-02
    -22.658  0.1848E+00  0.1005E-01
    -22.644  0.2390E+00  0.1331E-01
    -22.630  0.3065E+00  0.1750E-01
    -22.617  0.3898E+00  0.2282E-01
    -22.603  0.4915E+00  0.2954E-01
    -22.590  0.6148E+00  0.3793E-01
    -22.576  0.7626E+00  0.4835E-01
    -22.562  0.9384E+00  0.6117E-01
    -22.549  0.1145E+01  0.7681E-01
    -22.535  0.1387E+01  0.9576E-01
    -22.521  0.1666E+01  0.1185E+00
    -22.508  0.1987E+01  0.1457E+00
    -22.494  0.2350E+01  0.1778E+00
    -22.480  0.2760E+01  0.2155E+00
    -22.467  0.3216E+01  0.2594E+00
    -22.453  0.3721E+01  0.3102E+00
    -22.439  0.4275E+01  0.3686E+00
    -22.426  0.4876E+01  0.4352E+00
    -22.412  0.5523E+01  0.5106E+00
    -22.398  0.6213E+01  0.5955E+00
    -22.385  0.6944E+01  0.6903E+00
    -22.371  0.7710E+01  0.7956E+00
    -22.357  0.8506E+01  0.9118E+00
    -22.344  0.9326E+01  0.1039E+01
    -22.330  0.1016E+02  0.1178E+01
    -22.316  0.1101E+02  0.1328E+01
    -22.303  0.1186E+02  0.1490E+01
    -22.289  0.1271E+02  0.1664E+01
    -22.275  0.1354E+02  0.1849E+01
    -22.262  0.1435E+02  0.2045E+01
    -22.248  0.1514E+02  0.2252E+01
    -22.234  0.1589E+02  0.2469E+01
    -22.221  0.1660E+02  0.2696E+01
    -22.207  0.1727E+02  0.2932E+01
    -22.193  0.1789E+02  0.3176E+01
    -22.180  0.1847E+02  0.3428E+01
    -22.166  0.1898E+02  0.3688E+01
    -22.152  0.1945E+02  0.3953E+01
    -22.139  0.1986E+02  0.4224E+01
    -22.125  0.2023E+02  0.4501E+01
    -22.111  0.2055E+02  0.4781E+01
    -22.098  0.2082E+02  0.5066E+01
    -22.084  0.2105E+02  0.5353E+01
    -22.070  0.2124E+02  0.5643E+01
    -22.057  0.2140E+02  0.5936E+01
    -22.043  0.2154E+02  0.6230E+01
    -22.030  0.2164E+02  0.6526E+01
    -22.016  0.2173E+02  0.6822E+01
    -22.002  0.2180E+02  0.7120E+01
    -21.989  0.2185E+02  0.7418E+01
    -21.975  0.2189E+02  0.7717E+01
    -21.961  0.2191E+02  0.8017E+01
    -21.948  0.2193E+02  0.8316E+01
    -21.934  0.2194E+02  0.8616E+01
    -21.920  0.2194E+02  0.8916E+01
    -21.907  0.2193E+02  0.9215E+01
    -21.893  0.2191E+02  0.9514E+01
    -21.879  0.2189E+02  0.9813E+01
    -21.866  0.2186E+02  0.1011E+02
    -21.852  0.2182E+02  0.1041E+02
    -21.838  0.2177E+02  0.1071E+02
    -21.825  0.2172E+02  0.1100E+02
    -21.811  0.2166E+02  0.1130E+02
    -21.797  0.2160E+02  0.1160E+02
    -21.784  0.2152E+02  0.1189E+02
    -21.770  0.2144E+02  0.1218E+02
    -21.756  0.2135E+02  0.1247E+02
    -21.743  0.2126E+02  0.1276E+02
    -21.729  0.2115E+02  0.1305E+02
    -21.715  0.2104E+02  0.1334E+02
    -21.702  0.2092E+02  0.1363E+02
    -21.688  0.2078E+02  0.1391E+02
    -21.674  0.2064E+02  0.1419E+02
    -21.661  0.2049E+02  0.1447E+02
    -21.647  0.2033E+02  0.1475E+02
    -21.633  0.2017E+02  0.1502E+02
    -21.620  0.2000E+02  0.1530E+02
    -21.606  0.1983E+02  0.1557E+02
    -21.592  0.1966E+02  0.1584E+02
    -21.579  0.1950E+02  0.1610E+02
    -21.565  0.1934E+02  0.1637E+02
    -21.551  0.1920E+02  0.1663E+02
    -21.538  0.1908E+02  0.1689E+02
    -21.524  0.1898E+02  0.1715E+02
    -21.510  0.1891E+02  0.1741E+02
    -21.497  0.1886E+02  0.1767E+02
    -21.483  0.1885E+02  0.1792E+02
    -21.470  0.1887E+02  0.1818E+02
    -21.456  0.1892E+02  0.1844E+02
    -21.442  0.1900E+02  0.1870E+02
    -21.429  0.1911E+02  0.1896E+02
    -21.415  0.1925E+02  0.1922E+02
    -21.401  0.1940E+02  0.1949E+02
    -21.388  0.1958E+02  0.1975E+02
    -21.374  0.1977E+02  0.2002E+02
    -21.360  0.1996E+02  0.2030E+02
    -21.347  0.2015E+02  0.2057E+02
    -21.333  0.2034E+02  0.2085E+02
    -21.319  0.2052E+02  0.2113E+02
    -21.306  0.2068E+02  0.2141E+02
    -21.292  0.2083E+02  0.2170E+02
    -21.278  0.2095E+02  0.2198E+02
    -21.265  0.2106E+02  0.2227E+02
    -21.251  0.2114E+02  0.2256E+02
    -21.237  0.2120E+02  0.2285E+02
    -21.224  0.2124E+02  0.2314E+02
    -21.210  0.2127E+02  0.2343E+02
    -21.196  0.2128E+02  0.2372E+02
    -21.183  0.2128E+02  0.2401E+02
    -21.169  0.2128E+02  0.2430E+02
    -21.155  0.2127E+02  0.2459E+02
    -21.142  0.2127E+02  0.2488E+02
    -21.128  0.2127E+02  0.2517E+02
    -21.114  0.2129E+02  0.2546E+02
    -21.101  0.2132E+02  0.2576E+02
    -21.087  0.2136E+02  0.2605E+02
    -21.073  0.2143E+02  0.2634E+02
    -21.060  0.2151E+02  0.2663E+02
    -21.046  0.2161E+02  0.2693E+02
    -21.032  0.2174E+02  0.2723E+02
    -21.019  0.2188E+02  0.2752E+02
    -21.005  0.2205E+02  0.2783E+02
    -20.991  0.2223E+02  0.2813E+02
    -20.978  0.2242E+02  0.2844E+02
    -20.964  0.2263E+02  0.2875E+02
    -20.950  0.2284E+02  0.2906E+02
    -20.937  0.2305E+02  0.2937E+02
    -20.923  0.2327E+02  0.2969E+02
    -20.910  0.2347E+02  0.3001E+02
    -20.896  0.2367E+02  0.3033E+02
    -20.882  0.2385E+02  0.3066E+02
    -20.869  0.2401E+02  0.3099E+02
    -20.855  0.2414E+02  0.3132E+02
    -20.841  0.2425E+02  0.3165E+02
    -20.828  0.2432E+02  0.3198E+02
    -20.814  0.2436E+02  0.3231E+02
    -20.800  0.2437E+02  0.3265E+02
    -20.787  0.2434E+02  0.3298E+02
    -20.773  0.2428E+02  0.3331E+02
    -20.759  0.2419E+02  0.3364E+02
    -20.746  0.2406E+02  0.3397E+02
    -20.732  0.2391E+02  0.3430E+02
    -20.718  0.2373E+02  0.3462E+02
    -20.705  0.2354E+02  0.3494E+02
    -20.691  0.2334E+02  0.3526E+02
    -20.677  0.2313E+02  0.3558E+02
    -20.664  0.2292E+02  0.3589E+02
    -20.650  0.2271E+02  0.3620E+02
    -20.636  0.2252E+02  0.3651E+02
    -20.623  0.2235E+02  0.3681E+02
    -20.609  0.2221E+02  0.3712E+02
    -20.595  0.2210E+02  0.3742E+02
    -20.582  0.2202E+02  0.3772E+02
    -20.568  0.2199E+02  0.3802E+02
    -20.554  0.2200E+02  0.3832E+02
    -20.541  0.2206E+02  0.3862E+02
    -20.527  0.2217E+02  0.3892E+02
    -20.513  0.2233E+02  0.3923E+02
    -20.500  0.2254E+02  0.3954E+02
    -20.486  0.2279E+02  0.3985E+02
    -20.472  0.2310E+02  0.4016E+02
    -20.459  0.2344E+02  0.4048E+02
    -20.445  0.2382E+02  0.4081E+02
    -20.431  0.2424E+02  0.4114E+02
    -20.418  0.2468E+02  0.4148E+02
    -20.404  0.2514E+02  0.4182E+02
    -20.390  0.2561E+02  0.4217E+02
    -20.377  0.2608E+02  0.4253E+02
    -20.363  0.2655E+02  0.4289E+02
    -20.350  0.2700E+02  0.4326E+02
    -20.336  0.2743E+02  0.4363E+02
    -20.322  0.2783E+02  0.4401E+02
    -20.309  0.2818E+02  0.4440E+02
    -20.295  0.2849E+02  0.4479E+02
    -20.281  0.2874E+02  0.4518E+02
    -20.268  0.2894E+02  0.4557E+02
    -20.254  0.2907E+02  0.4597E+02
    -20.240  0.2913E+02  0.4637E+02
    -20.227  0.2912E+02  0.4677E+02
    -20.213  0.2906E+02  0.4716E+02
    -20.199  0.2893E+02  0.4756E+02
    -20.186  0.2874E+02  0.4795E+02
    -20.172  0.2851E+02  0.4834E+02
    -20.158  0.2823E+02  0.4873E+02
    -20.145  0.2793E+02  0.4911E+02
    -20.131  0.2760E+02  0.4948E+02
    -20.117  0.2726E+02  0.4986E+02
    -20.104  0.2692E+02  0.5022E+02
    -20.090  0.2659E+02  0.5059E+02
    -20.076  0.2627E+02  0.5095E+02
    -20.063  0.2599E+02  0.5130E+02
    -20.049  0.2574E+02  0.5165E+02
    -20.035  0.2554E+02  0.5200E+02
    -20.022  0.2537E+02  0.5235E+02
    -20.008  0.2526E+02  0.5269E+02
    -19.994  0.2519E+02  0.5304E+02
    -19.981  0.2516E+02  0.5338E+02
    -19.967  0.2518E+02  0.5372E+02
    -19.953  0.2523E+02  0.5407E+02
    -19.940  0.2532E+02  0.5442E+02
    -19.926  0.2542E+02  0.5476E+02
    -19.912  0.2553E+02  0.5511E+02
    -19.899  0.2565E+02  0.5546E+02
    -19.885  0.2577E+02  0.5581E+02
    -19.871  0.2586E+02  0.5617E+02
    -19.858  0.2594E+02  0.5652E+02
    -19.844  0.2599E+02  0.5688E+02
    -19.830  0.2601E+02  0.5723E+02
    -19.817  0.2599E+02  0.5759E+02
    -19.803  0.2593E+02  0.5794E+02
    -19.790  0.2583E+02  0.5829E+02
    -19.776  0.2569E+02  0.5864E+02
    -19.762  0.2552E+02  0.5899E+02
    -19.749  0.2532E+02  0.5934E+02
    -19.735  0.2509E+02  0.5968E+02
    -19.721  0.2484E+02  0.6002E+02
    -19.708  0.2458E+02  0.6036E+02
    -19.694  0.2432E+02  0.6069E+02
    -19.680  0.2406E+02  0.6102E+02
    -19.667  0.2382E+02  0.6134E+02
    -19.653  0.2360E+02  0.6166E+02
    -19.639  0.2342E+02  0.6198E+02
    -19.626  0.2326E+02  0.6230E+02
    -19.612  0.2315E+02  0.6262E+02
    -19.598  0.2307E+02  0.6293E+02
    -19.585  0.2304E+02  0.6325E+02
    -19.571  0.2306E+02  0.6356E+02
    -19.557  0.2311E+02  0.6388E+02
    -19.544  0.2320E+02  0.6420E+02
    -19.530  0.2333E+02  0.6451E+02
    -19.516  0.2348E+02  0.6484E+02
    -19.503  0.2366E+02  0.6516E+02
    -19.489  0.2384E+02  0.6548E+02
    -19.475  0.2403E+02  0.6581E+02
    -19.462  0.2422E+02  0.6614E+02
    -19.448  0.2440E+02  0.6648E+02
    -19.434  0.2457E+02  0.6681E+02
    -19.421  0.2471E+02  0.6715E+02
    -19.407  0.2484E+02  0.6749E+02
    -19.393  0.2493E+02  0.6783E+02
    -19.380  0.2500E+02  0.6817E+02
    -19.366  0.2504E+02  0.6851E+02
    -19.352  0.2506E+02  0.6886E+02
    -19.339  0.2506E+02  0.6920E+02
    -19.325  0.2504E+02  0.6954E+02
    -19.311  0.2501E+02  0.6988E+02
    -19.298  0.2497E+02  0.7022E+02
    -19.284  0.2493E+02  0.7056E+02
    -19.270  0.2489E+02  0.7090E+02
    -19.257  0.2486E+02  0.7124E+02
    -19.243  0.2484E+02  0.7158E+02
    -19.230  0.2484E+02  0.7192E+02
    -19.216  0.2486E+02  0.7226E+02
    -19.202  0.2489E+02  0.7260E+02
    -19.189  0.2495E+02  0.7294E+02
    -19.175  0.2502E+02  0.7328E+02
    -19.161  0.2510E+02  0.7363E+02
    -19.148  0.2519E+02  0.7397E+02
    -19.134  0.2530E+02  0.7432E+02
    -19.120  0.2540E+02  0.7466E+02
    -19.107  0.2550E+02  0.7501E+02
    -19.093  0.2560E+02  0.7536E+02
    -19.079  0.2569E+02  0.7571E+02
    -19.066  0.2577E+02  0.7606E+02
    -19.052  0.2584E+02  0.7642E+02
    -19.038  0.2590E+02  0.7677E+02
    -19.025  0.2595E+02  0.7712E+02
    -19.011  0.2598E+02  0.7748E+02
    -18.997  0.2601E+02  0.7783E+02
    -18.984  0.2603E+02  0.7819E+02
    -18.970  0.2604E+02  0.7855E+02
    -18.956  0.2606E+02  0.7890E+02
    -18.943  0.2608E+02  0.7926E+02
    -18.929  0.2612E+02  0.7961E+02
    -18.915  0.2616E+02  0.7997E+02
    -18.902  0.2621E+02  0.8033E+02
    -18.888  0.2628E+02  0.8069E+02
    -18.874  0.2638E+02  0.8105E+02
    -18.861  0.2649E+02  0.8141E+02
    -18.847  0.2662E+02  0.8177E+02
    -18.833  0.2677E+02  0.8214E+02
    -18.820  0.2693E+02  0.8251E+02
    -18.806  0.2712E+02  0.8288E+02
    -18.792  0.2732E+02  0.8325E+02
    -18.779  0.2753E+02  0.8363E+02
    -18.765  0.2775E+02  0.8401E+02
    -18.751  0.2798E+02  0.8439E+02
    -18.738  0.2820E+02  0.8477E+02
    -18.724  0.2843E+02  0.8516E+02
    -18.710  0.2864E+02  0.8555E+02
    -18.697  0.2884E+02  0.8595E+02
    -18.683  0.2903E+02  0.8634E+02
    -18.670  0.2919E+02  0.8674E+02
    -18.656  0.2933E+02  0.8714E+02
    -18.642  0.2944E+02  0.8754E+02
    -18.629  0.2951E+02  0.8795E+02
    -18.615  0.2954E+02  0.8835E+02
    -18.601  0.2954E+02  0.8875E+02
    -18.588  0.2949E+02  0.8916E+02
    -18.574  0.2940E+02  0.8956E+02
    -18.560  0.2927E+02  0.8996E+02
    -18.547  0.2909E+02  0.9036E+02
    -18.533  0.2888E+02  0.9075E+02
    -18.519  0.2864E+02  0.9114E+02
    -18.506  0.2836E+02  0.9153E+02
    -18.492  0.2806E+02  0.9191E+02
    -18.478  0.2774E+02  0.9229E+02
    -18.465  0.2741E+02  0.9267E+02
    -18.451  0.2707E+02  0.9304E+02
    -18.437  0.2674E+02  0.9340E+02
    -18.424  0.2641E+02  0.9376E+02
    -18.410  0.2610E+02  0.9412E+02
    -18.396  0.2581E+02  0.9447E+02
    -18.383  0.2555E+02  0.9482E+02
    -18.369  0.2531E+02  0.9517E+02
    -18.355  0.2511E+02  0.9551E+02
    -18.342  0.2494E+02  0.9585E+02
    -18.328  0.2481E+02  0.9619E+02
    -18.314  0.2471E+02  0.9653E+02
    -18.301  0.2465E+02  0.9686E+02
    -18.287  0.2462E+02  0.9720E+02
    -18.273  0.2462E+02  0.9753E+02
    -18.260  0.2465E+02  0.9787E+02
    -18.246  0.2470E+02  0.9821E+02
    -18.232  0.2478E+02  0.9855E+02
    -18.219  0.2486E+02  0.9889E+02
    -18.205  0.2495E+02  0.9923E+02
    -18.191  0.2505E+02  0.9957E+02
    -18.178  0.2515E+02  0.9991E+02
    -18.164  0.2525E+02  0.1003E+03
    -18.150  0.2535E+02  0.1006E+03
    -18.137  0.2543E+02  0.1010E+03
    -18.123  0.2550E+02  0.1013E+03
    -18.110  0.2556E+02  0.1016E+03
    -18.096  0.2561E+02  0.1020E+03
    -18.082  0.2564E+02  0.1023E+03
    -18.069  0.2566E+02  0.1027E+03
    -18.055  0.2566E+02  0.1031E+03
    -18.041  0.2566E+02  0.1034E+03
    -18.028  0.2564E+02  0.1038E+03
    -18.014  0.2561E+02  0.1041E+03
    -18.000  0.2558E+02  0.1045E+03
    -17.987  0.2554E+02  0.1048E+03
    -17.973  0.2549E+02  0.1051E+03
    -17.959  0.2544E+02  0.1055E+03
    -17.946  0.2539E+02  0.1058E+03
    -17.932  0.2533E+02  0.1062E+03
    -17.918  0.2527E+02  0.1065E+03
    -17.905  0.2520E+02  0.1069E+03
    -17.891  0.2512E+02  0.1072E+03
    -17.877  0.2504E+02  0.1076E+03
    -17.864  0.2495E+02  0.1079E+03
    -17.850  0.2486E+02  0.1082E+03
    -17.836  0.2476E+02  0.1086E+03
    -17.823  0.2466E+02  0.1089E+03
    -17.809  0.2455E+02  0.1093E+03
    -17.795  0.2445E+02  0.1096E+03
    -17.782  0.2435E+02  0.1099E+03
    -17.768  0.2425E+02  0.1103E+03
    -17.754  0.2416E+02  0.1106E+03
    -17.741  0.2409E+02  0.1109E+03
    -17.727  0.2403E+02  0.1112E+03
    -17.713  0.2399E+02  0.1116E+03
    -17.700  0.2397E+02  0.1119E+03
    -17.686  0.2397E+02  0.1122E+03
    -17.672  0.2399E+02  0.1125E+03
    -17.659  0.2402E+02  0.1129E+03
    -17.645  0.2407E+02  0.1132E+03
    -17.631  0.2412E+02  0.1135E+03
    -17.618  0.2418E+02  0.1139E+03
    -17.604  0.2424E+02  0.1142E+03
    -17.590  0.2430E+02  0.1145E+03
    -17.577  0.2434E+02  0.1149E+03
    -17.563  0.2436E+02  0.1152E+03
    -17.550  0.2437E+02  0.1155E+03
    -17.536  0.2434E+02  0.1159E+03
    -17.522  0.2429E+02  0.1162E+03
    -17.509  0.2422E+02  0.1165E+03
    -17.495  0.2411E+02  0.1168E+03
    -17.481  0.2398E+02  0.1172E+03
    -17.468  0.2383E+02  0.1175E+03
    -17.454  0.2365E+02  0.1178E+03
    -17.440  0.2346E+02  0.1181E+03
    -17.427  0.2326E+02  0.1185E+03
    -17.413  0.2306E+02  0.1188E+03
    -17.399  0.2286E+02  0.1191E+03
    -17.386  0.2268E+02  0.1194E+03
    -17.372  0.2250E+02  0.1197E+03
    -17.358  0.2235E+02  0.1200E+03
    -17.345  0.2223E+02  0.1203E+03
    -17.331  0.2214E+02  0.1206E+03
    -17.317  0.2209E+02  0.1209E+03
    -17.304  0.2207E+02  0.1212E+03
    -17.290  0.2210E+02  0.1215E+03
    -17.276  0.2217E+02  0.1218E+03
    -17.263  0.2228E+02  0.1221E+03
    -17.249  0.2244E+02  0.1224E+03
    -17.235  0.2264E+02  0.1227E+03
    -17.222  0.2287E+02  0.1231E+03
    -17.208  0.2315E+02  0.1234E+03
    -17.194  0.2347E+02  0.1237E+03
    -17.181  0.2381E+02  0.1240E+03
    -17.167  0.2419E+02  0.1244E+03
    -17.153  0.2459E+02  0.1247E+03
    -17.140  0.2500E+02  0.1250E+03
    -17.126  0.2544E+02  0.1254E+03
    -17.112  0.2588E+02  0.1257E+03
    -17.099  0.2632E+02  0.1261E+03
    -17.085  0.2676E+02  0.1265E+03
    -17.071  0.2720E+02  0.1268E+03
    -17.058  0.2761E+02  0.1272E+03
    -17.044  0.2801E+02  0.1276E+03
    -17.030  0.2839E+02  0.1280E+03
    -17.017  0.2873E+02  0.1284E+03
    -17.003  0.2904E+02  0.1288E+03
    -16.990  0.2931E+02  0.1292E+03
    -16.976  0.2954E+02  0.1296E+03
    -16.962  0.2972E+02  0.1300E+03
    -16.949  0.2986E+02  0.1304E+03
    -16.935  0.2995E+02  0.1308E+03
    -16.921  0.2998E+02  0.1312E+03
    -16.908  0.2996E+02  0.1316E+03
    -16.894  0.2990E+02  0.1320E+03
    -16.880  0.2978E+02  0.1324E+03
    -16.867  0.2961E+02  0.1328E+03
    -16.853  0.2940E+02  0.1332E+03
    -16.839  0.2914E+02  0.1336E+03
    -16.826  0.2884E+02  0.1340E+03
    -16.812  0.2851E+02  0.1344E+03
    -16.798  0.2815E+02  0.1348E+03
    -16.785  0.2777E+02  0.1352E+03
    -16.771  0.2737E+02  0.1355E+03
    -16.757  0.2695E+02  0.1359E+03
    -16.744  0.2653E+02  0.1363E+03
    -16.730  0.2611E+02  0.1366E+03
    -16.716  0.2569E+02  0.1370E+03
    -16.703  0.2529E+02  0.1373E+03
    -16.689  0.2490E+02  0.1377E+03
    -16.675  0.2453E+02  0.1380E+03
    -16.662  0.2420E+02  0.1383E+03
    -16.648  0.2389E+02  0.1387E+03
    -16.634  0.2361E+02  0.1390E+03
    -16.621  0.2338E+02  0.1393E+03
    -16.607  0.2318E+02  0.1396E+03
    -16.593  0.2303E+02  0.1399E+03
    -16.580  0.2292E+02  0.1403E+03
    -16.566  0.2285E+02  0.1406E+03
    -16.552  0.2283E+02  0.1409E+03
    -16.539  0.2285E+02  0.1412E+03
    -16.525  0.2291E+02  0.1415E+03
    -16.511  0.2301E+02  0.1418E+03
    -16.498  0.2314E+02  0.1421E+03
    -16.484  0.2331E+02  0.1424E+03
    -16.470  0.2350E+02  0.1428E+03
    -16.457  0.2372E+02  0.1431E+03
    -16.443  0.2396E+02  0.1434E+03
    -16.430  0.2420E+02  0.1438E+03
    -16.416  0.2446E+02  0.1441E+03
    -16.402  0.2471E+02  0.1444E+03
    -16.389  0.2497E+02  0.1448E+03
    -16.375  0.2522E+02  0.1451E+03
    -16.361  0.2545E+02  0.1455E+03
    -16.348  0.2568E+02  0.1458E+03
    -16.334  0.2588E+02  0.1462E+03
    -16.320  0.2607E+02  0.1465E+03
    -16.307  0.2624E+02  0.1469E+03
    -16.293  0.2639E+02  0.1472E+03
    -16.279  0.2651E+02  0.1476E+03
    -16.266  0.2662E+02  0.1480E+03
    -16.252  0.2670E+02  0.1483E+03
    -16.238  0.2677E+02  0.1487E+03
    -16.225  0.2682E+02  0.1491E+03
    -16.211  0.2686E+02  0.1494E+03
    -16.197  0.2688E+02  0.1498E+03
    -16.184  0.2689E+02  0.1502E+03
    -16.170  0.2689E+02  0.1505E+03
    -16.156  0.2689E+02  0.1509E+03
    -16.143  0.2687E+02  0.1513E+03
    -16.129  0.2686E+02  0.1516E+03
    -16.115  0.2684E+02  0.1520E+03
    -16.102  0.2681E+02  0.1524E+03
    -16.088  0.2679E+02  0.1527E+03
    -16.074  0.2677E+02  0.1531E+03
    -16.061  0.2674E+02  0.1535E+03
    -16.047  0.2672E+02  0.1538E+03
    -16.033  0.2670E+02  0.1542E+03
    -16.020  0.2667E+02  0.1546E+03
    -16.006  0.2664E+02  0.1549E+03
    -15.992  0.2661E+02  0.1553E+03
    -15.979  0.2657E+02  0.1556E+03
    -15.965  0.2653E+02  0.1560E+03
    -15.951  0.2647E+02  0.1564E+03
    -15.938  0.2639E+02  0.1567E+03
    -15.924  0.2630E+02  0.1571E+03
    -15.910  0.2619E+02  0.1574E+03
    -15.897  0.2606E+02  0.1578E+03
    -15.883  0.2590E+02  0.1582E+03
    -15.870  0.2572E+02  0.1585E+03
    -15.856  0.2551E+02  0.1589E+03
    -15.842  0.2527E+02  0.1592E+03
    -15.829  0.2500E+02  0.1595E+03
    -15.815  0.2471E+02  0.1599E+03
    -15.801  0.2440E+02  0.1602E+03
    -15.788  0.2406E+02  0.1605E+03
    -15.774  0.2371E+02  0.1609E+03
    -15.760  0.2335E+02  0.1612E+03
    -15.747  0.2299E+02  0.1615E+03
    -15.733  0.2263E+02  0.1618E+03
    -15.719  0.2228E+02  0.1621E+03
    -15.706  0.2194E+02  0.1624E+03
    -15.692  0.2163E+02  0.1627E+03
    -15.678  0.2135E+02  0.1630E+03
    -15.665  0.2111E+02  0.1633E+03
    -15.651  0.2091E+02  0.1636E+03
    -15.637  0.2076E+02  0.1639E+03
    -15.624  0.2066E+02  0.1641E+03
    -15.610  0.2061E+02  0.1644E+03
    -15.596  0.2062E+02  0.1647E+03
    -15.583  0.2069E+02  0.1650E+03
    -15.569  0.2081E+02  0.1653E+03
    -15.555  0.2098E+02  0.1656E+03
    -15.542  0.2119E+02  0.1658E+03
    -15.528  0.2145E+02  0.1661E+03
    -15.514  0.2175E+02  0.1664E+03
    -15.501  0.2208E+02  0.1667E+03
    -15.487  0.2243E+02  0.1670E+03
    -15.473  0.2280E+02  0.1673E+03
    -15.460  0.2318E+02  0.1677E+03
    -15.446  0.2356E+02  0.1680E+03
    -15.432  0.2393E+02  0.1683E+03
    -15.419  0.2430E+02  0.1686E+03
    -15.405  0.2465E+02  0.1690E+03
    -15.391  0.2498E+02  0.1693E+03
    -15.378  0.2529E+02  0.1697E+03
    -15.364  0.2557E+02  0.1700E+03
    -15.350  0.2582E+02  0.1704E+03
    -15.337  0.2603E+02  0.1707E+03
    -15.323  0.2622E+02  0.1711E+03
    -15.310  0.2637E+02  0.1714E+03
    -15.296  0.2649E+02  0.1718E+03
    -15.282  0.2658E+02  0.1722E+03
    -15.269  0.2664E+02  0.1725E+03
    -15.255  0.2666E+02  0.1729E+03
    -15.241  0.2667E+02  0.1733E+03
    -15.228  0.2664E+02  0.1736E+03
    -15.214  0.2660E+02  0.1740E+03
    -15.200  0.2654E+02  0.1744E+03
    -15.187  0.2647E+02  0.1747E+03
    -15.173  0.2639E+02  0.1751E+03
    -15.159  0.2631E+02  0.1754E+03
    -15.146  0.2624E+02  0.1758E+03
    -15.132  0.2617E+02  0.1762E+03
    -15.118  0.2611E+02  0.1765E+03
    -15.105  0.2608E+02  0.1769E+03
    -15.091  0.2606E+02  0.1772E+03
    -15.077  0.2608E+02  0.1776E+03
    -15.064  0.2612E+02  0.1779E+03
    -15.050  0.2619E+02  0.1783E+03
    -15.036  0.2630E+02  0.1786E+03
    -15.023  0.2644E+02  0.1790E+03
    -15.009  0.2661E+02  0.1794E+03
    -14.995  0.2681E+02  0.1797E+03
    -14.982  0.2702E+02  0.1801E+03
    -14.968  0.2726E+02  0.1805E+03
    -14.954  0.2749E+02  0.1809E+03
    -14.941  0.2773E+02  0.1812E+03
    -14.927  0.2796E+02  0.1816E+03
    -14.913  0.2817E+02  0.1820E+03
    -14.900  0.2836E+02  0.1824E+03
    -14.886  0.2851E+02  0.1828E+03
    -14.872  0.2863E+02  0.1832E+03
    -14.859  0.2870E+02  0.1836E+03
    -14.845  0.2872E+02  0.1840E+03
    -14.831  0.2869E+02  0.1843E+03
    -14.818  0.2861E+02  0.1847E+03
    -14.804  0.2848E+02  0.1851E+03
    -14.790  0.2830E+02  0.1855E+03
    -14.777  0.2808E+02  0.1859E+03
    -14.763  0.2782E+02  0.1863E+03
    -14.750  0.2752E+02  0.1867E+03
    -14.736  0.2720E+02  0.1870E+03
    -14.722  0.2687E+02  0.1874E+03
    -14.709  0.2652E+02  0.1878E+03
    -14.695  0.2617E+02  0.1881E+03
    -14.681  0.2583E+02  0.1885E+03
    -14.668  0.2550E+02  0.1888E+03
    -14.654  0.2519E+02  0.1892E+03
    -14.640  0.2491E+02  0.1895E+03
    -14.627  0.2465E+02  0.1898E+03
    -14.613  0.2444E+02  0.1902E+03
    -14.599  0.2426E+02  0.1905E+03
    -14.586  0.2412E+02  0.1908E+03
    -14.572  0.2402E+02  0.1912E+03
    -14.558  0.2395E+02  0.1915E+03
    -14.545  0.2393E+02  0.1918E+03
    -14.531  0.2394E+02  0.1921E+03
    -14.517  0.2397E+02  0.1925E+03
    -14.504  0.2403E+02  0.1928E+03
    -14.490  0.2412E+02  0.1931E+03
    -14.476  0.2421E+02  0.1935E+03
    -14.463  0.2432E+02  0.1938E+03
    -14.449  0.2443E+02  0.1941E+03
    -14.435  0.2454E+02  0.1945E+03
    -14.422  0.2465E+02  0.1948E+03
    -14.408  0.2475E+02  0.1951E+03
    -14.394  0.2484E+02  0.1955E+03
    -14.381  0.2492E+02  0.1958E+03
    -14.367  0.2498E+02  0.1961E+03
    -14.353  0.2504E+02  0.1965E+03
    -14.340  0.2507E+02  0.1968E+03
    -14.326  0.2510E+02  0.1972E+03
    -14.312  0.2512E+02  0.1975E+03
    -14.299  0.2512E+02  0.1979E+03
    -14.285  0.2513E+02  0.1982E+03
    -14.271  0.2512E+02  0.1985E+03
    -14.258  0.2512E+02  0.1989E+03
    -14.244  0.2512E+02  0.1992E+03
    -14.230  0.2513E+02  0.1996E+03
    -14.217  0.2514E+02  0.1999E+03
    -14.203  0.2517E+02  0.2003E+03
    -14.190  0.2520E+02  0.2006E+03
    -14.176  0.2524E+02  0.2010E+03
    -14.162  0.2530E+02  0.2013E+03
    -14.149  0.2537E+02  0.2016E+03
    -14.135  0.2545E+02  0.2020E+03
    -14.121  0.2554E+02  0.2023E+03
    -14.108  0.2564E+02  0.2027E+03
    -14.094  0.2574E+02  0.2030E+03
    -14.080  0.2586E+02  0.2034E+03
    -14.067  0.2598E+02  0.2038E+03
    -14.053  0.2610E+02  0.2041E+03
    -14.039  0.2622E+02  0.2045E+03
    -14.026  0.2633E+02  0.2048E+03
    -14.012  0.2644E+02  0.2052E+03
    -13.998  0.2655E+02  0.2055E+03
    -13.985  0.2664E+02  0.2059E+03
    -13.971  0.2672E+02  0.2063E+03
    -13.957  0.2679E+02  0.2066E+03
    -13.944  0.2684E+02  0.2070E+03
    -13.930  0.2688E+02  0.2074E+03
    -13.916  0.2690E+02  0.2077E+03
    -13.903  0.2690E+02  0.2081E+03
    -13.889  0.2688E+02  0.2085E+03
    -13.875  0.2683E+02  0.2088E+03
    -13.862  0.2677E+02  0.2092E+03
    -13.848  0.2669E+02  0.2096E+03
    -13.834  0.2659E+02  0.2099E+03
    -13.821  0.2647E+02  0.2103E+03
    -13.807  0.2632E+02  0.2107E+03
    -13.793  0.2617E+02  0.2110E+03
    -13.780  0.2599E+02  0.2114E+03
    -13.766  0.2581E+02  0.2117E+03
    -13.752  0.2561E+02  0.2121E+03
    -13.739  0.2542E+02  0.2124E+03
    -13.725  0.2522E+02  0.2128E+03
    -13.711  0.2502E+02  0.2131E+03
    -13.698  0.2483E+02  0.2134E+03
    -13.684  0.2466E+02  0.2138E+03
    -13.670  0.2450E+02  0.2141E+03
    -13.657  0.2437E+02  0.2145E+03
    -13.643  0.2426E+02  0.2148E+03
    -13.630  0.2418E+02  0.2151E+03
    -13.616  0.2414E+02  0.2154E+03
    -13.602  0.2412E+02  0.2158E+03
    -13.589  0.2414E+02  0.2161E+03
    -13.575  0.2420E+02  0.2164E+03
    -13.561  0.2429E+02  0.2168E+03
    -13.548  0.2441E+02  0.2171E+03
    -13.534  0.2456E+02  0.2174E+03
    -13.520  0.2474E+02  0.2178E+03
    -13.507  0.2493E+02  0.2181E+03
    -13.493  0.2515E+02  0.2185E+03
    -13.479  0.2537E+02  0.2188E+03
    -13.466  0.2560E+02  0.2192E+03
    -13.452  0.2584E+02  0.2195E+03
    -13.438  0.2606E+02  0.2199E+03
    -13.425  0.2628E+02  0.2202E+03
    -13.411  0.2648E+02  0.2206E+03
    -13.397  0.2667E+02  0.2209E+03
    -13.384  0.2683E+02  0.2213E+03
    -13.370  0.2696E+02  0.2217E+03
    -13.356  0.2706E+02  0.2221E+03
    -13.343  0.2713E+02  0.2224E+03
    -13.329  0.2717E+02  0.2228E+03
    -13.315  0.2718E+02  0.2232E+03
    -13.302  0.2716E+02  0.2235E+03
    -13.288  0.2711E+02  0.2239E+03
    -13.274  0.2703E+02  0.2243E+03
    -13.261  0.2694E+02  0.2246E+03
    -13.247  0.2682E+02  0.2250E+03
    -13.233  0.2670E+02  0.2254E+03
    -13.220  0.2656E+02  0.2257E+03
    -13.206  0.2643E+02  0.2261E+03
    -13.192  0.2630E+02  0.2265E+03
    -13.179  0.2618E+02  0.2268E+03
    -13.165  0.2608E+02  0.2272E+03
    -13.151  0.2600E+02  0.2275E+03
    -13.138  0.2593E+02  0.2279E+03
    -13.124  0.2589E+02  0.2282E+03
    -13.110  0.2588E+02  0.2286E+03
    -13.097  0.2589E+02  0.2289E+03
    -13.083  0.2593E+02  0.2293E+03
    -13.070  0.2600E+02  0.2296E+03
    -13.056  0.2608E+02  0.2300E+03
    -13.042  0.2619E+02  0.2304E+03