  94  94   0   0
  0.2675112E+02  0.1704000E-08  0.1475707E-08  0.1000000E-08  0.5000000E-15
  1.000000000000000E-004
  CAR 
 unknown system                          
      6.53853445    -22.87574327 2000     -1.47796987      1.00000000
    -22.876  0.0000E+00  0.0000E+00
    -22.861  0.0000E+00  0.0000E+00
    -22.846  0.0000E+00  0.0000E+00
    -22.832  0.0000E+00  0.0000E+00
    -22.817  0.0000E+00  0.0000E+00
    -22.802  0.0000E+00  0.0000E+00
    -22.787  0.0000E+00  0.0000E+00
    -22.773  0.0000E+00  0.0000E+00
    -22.758  0.0000E+00  0.0000E+00
    -22.743  0.0000E+00  0.0000E+00
    -22.729  0.0000E+00  0.0000E+00
    -22.714  0.0000E+00  0.0000E+00
    -22.699  0.0000E+00  0.0000E+00
    -22.684  0.0000E+00  0.0000E+00
    -22.670  0.0000E+00  0.0000E+00
    -22.655  0.0000E+00  0.0000E+00
    -22.640  0.0000E+00  0.0000E+00
    -22.626  0.0000E+00  0.0000E+00
    -22.611  0.0000E+00  0.0000E+00
    -22.596  0.0000E+00  0.0000E+00
    -22.581  0.0000E+00  0.0000E+00
    -22.567  0.0000E+00  0.0000E+00
    -22.552  0.0000E+00  0.0000E+00
    -22.537  0.0000E+00  0.0000E+00
    -22.523  0.0000E+00  0.0000E+00
    -22.508  0.0000E+00  0.0000E+00
    -22.493  0.0000E+00  0.0000E+00
    -22.478  0.0000E+00  0.0000E+00
    -22.464  0.0000E+00  0.0000E+00
    -22.449  0.0000E+00  0.0000E+00
    -22.434  0.0000E+00  0.0000E+00
    -22.420  0.0000E+00  0.0000E+00
    -22.405  0.0000E+00  0.0000E+00
    -22.390  0.0000E+00  0.0000E+00
    -22.375  0.0000E+00  0.0000E+00
    -22.361  0.0000E+00  0.0000E+00
    -22.346  0.0000E+00  0.0000E+00
    -22.331  0.0000E+00  0.0000E+00
    -22.317  0.0000E+00  0.0000E+00
    -22.302  0.0000E+00  0.0000E+00
    -22.287  0.0000E+00  0.0000E+00
    -22.272  0.0000E+00  0.0000E+00
    -22.258  0.0000E+00  0.0000E+00
    -22.243  0.0000E+00  0.0000E+00
    -22.228  0.0000E+00  0.0000E+00
    -22.214  0.0000E+00  0.0000E+00
    -22.199  0.0000E+00  0.0000E+00
    -22.184  0.0000E+00  0.0000E+00
    -22.169  0.0000E+00  0.0000E+00
    -22.155  0.0000E+00  0.0000E+00
    -22.140  0.0000E+00  0.0000E+00
    -22.125  0.0000E+00  0.0000E+00
    -22.111  0.0000E+00  0.0000E+00
    -22.096  0.0000E+00  0.0000E+00
    -22.081  0.0000E+00  0.0000E+00
    -22.066  0.0000E+00  0.0000E+00
    -22.052  0.8383E-15  0.1234E-16
    -22.037  0.8383E-15  0.2467E-16
    -22.022  0.4192E-14  0.8635E-16
    -22.008  0.6707E-14  0.1850E-15
    -21.993  0.1844E-13  0.4564E-15
    -21.978  0.4108E-13  0.1061E-14
    -21.963  0.9306E-13  0.2430E-14
    -21.949  0.2129E-12  0.5563E-14
    -21.934  0.4653E-12  0.1241E-13
    -21.919  0.1028E-11  0.2753E-13
    -21.905  0.2235E-11  0.6042E-13
    -21.890  0.4811E-11  0.1312E-12
    -21.875  0.1025E-10  0.2821E-12
    -21.860  0.2161E-10  0.6001E-12
    -21.846  0.4508E-10  0.1263E-11
    -21.831  0.9303E-10  0.2632E-11
    -21.816  0.1900E-09  0.5428E-11
    -21.802  0.3840E-09  0.1108E-10
    -21.787  0.7678E-09  0.2238E-10
    -21.772  0.1519E-08  0.4473E-10
    -21.757  0.2975E-08  0.8850E-10
    -21.743  0.5764E-08  0.1733E-09
    -21.728  0.1105E-07  0.3359E-09
    -21.713  0.2097E-07  0.6444E-09
    -21.699  0.3936E-07  0.1224E-08
    -21.684  0.7312E-07  0.2300E-08
    -21.669  0.1344E-06  0.4278E-08
    -21.654  0.2446E-06  0.7876E-08
    -21.640  0.4403E-06  0.1436E-07
    -21.625  0.7844E-06  0.2590E-07
    -21.610  0.1383E-05  0.4625E-07
    -21.596  0.2413E-05  0.8175E-07
    -21.581  0.4166E-05  0.1431E-06
    -21.566  0.7118E-05  0.2478E-06
    -21.551  0.1204E-04  0.4249E-06
    -21.537  0.2014E-04  0.7213E-06
    -21.522  0.3336E-04  0.1212E-05
    -21.507  0.5467E-04  0.2017E-05
    -21.493  0.8867E-04  0.3321E-05
    -21.478  0.1423E-03  0.5416E-05
    -21.463  0.2261E-03  0.8743E-05
    -21.448  0.3556E-03  0.1398E-04
    -21.434  0.5533E-03  0.2212E-04
    -21.419  0.8522E-03  0.3466E-04
    -21.404  0.1299E-02  0.5377E-04
    -21.390  0.1960E-02  0.8260E-04
    -21.375  0.2926E-02  0.1257E-03
    -21.360  0.4325E-02  0.1893E-03
    -21.345  0.6326E-02  0.2824E-03
    -21.331  0.9160E-02  0.4172E-03
    -21.316  0.1313E-01  0.6104E-03
    -21.301  0.1862E-01  0.8844E-03
    -21.287  0.2615E-01  0.1269E-02
    -21.272  0.3636E-01  0.1804E-02
    -21.257  0.5003E-01  0.2540E-02
    -21.242  0.6815E-01  0.3543E-02
    -21.228  0.9191E-01  0.4895E-02
    -21.213  0.1227E+00  0.6701E-02
    -21.198  0.1622E+00  0.9088E-02
    -21.184  0.2123E+00  0.1221E-01
    -21.169  0.2751E+00  0.1626E-01
    -21.154  0.3530E+00  0.2145E-01
    -21.139  0.4486E+00  0.2806E-01
    -21.125  0.5646E+00  0.3636E-01
    -21.110  0.7037E+00  0.4672E-01
    -21.095  0.8688E+00  0.5950E-01
    -21.081  0.1062E+01  0.7513E-01
    -21.066  0.1287E+01  0.9408E-01
    -21.051  0.1545E+01  0.1168E+00
    -21.036  0.1838E+01  0.1439E+00
    -21.022  0.2167E+01  0.1758E+00
    -21.007  0.2533E+01  0.2130E+00
    -20.992  0.2934E+01  0.2562E+00
    -20.978  0.3371E+01  0.3058E+00
    -20.963  0.3840E+01  0.3623E+00
    -20.948  0.4340E+01  0.4262E+00
    -20.933  0.4866E+01  0.4978E+00
    -20.919  0.5414E+01  0.5774E+00
    -20.904  0.5980E+01  0.6654E+00
    -20.889  0.6558E+01  0.7619E+00
    -20.875  0.7143E+01  0.8670E+00
    -20.860  0.7729E+01  0.9807E+00
    -20.845  0.8310E+01  0.1103E+01
    -20.830  0.8882E+01  0.1234E+01
    -20.816  0.9438E+01  0.1373E+01
    -20.801  0.9976E+01  0.1519E+01
    -20.786  0.1049E+02  0.1674E+01
    -20.772  0.1098E+02  0.1835E+01
    -20.757  0.1144E+02  0.2004E+01
    -20.742  0.1186E+02  0.2178E+01
    -20.727  0.1226E+02  0.2359E+01
    -20.713  0.1262E+02  0.2544E+01
    -20.698  0.1295E+02  0.2735E+01
    -20.683  0.1324E+02  0.2930E+01
    -20.669  0.1350E+02  0.3128E+01
    -20.654  0.1373E+02  0.3330E+01
    -20.639  0.1393E+02  0.3535E+01
    -20.624  0.1411E+02  0.3743E+01
    -20.610  0.1425E+02  0.3953E+01
    -20.595  0.1438E+02  0.4164E+01
    -20.580  0.1448E+02  0.4377E+01
    -20.566  0.1456E+02  0.4591E+01
    -20.551  0.1463E+02  0.4807E+01
    -20.536  0.1468E+02  0.5023E+01
    -20.521  0.1472E+02  0.5239E+01
    -20.507  0.1474E+02  0.5456E+01
    -20.492  0.1476E+02  0.5673E+01
    -20.477  0.1476E+02  0.5891E+01
    -20.463  0.1476E+02  0.6108E+01
    -20.448  0.1475E+02  0.6325E+01
    -20.433  0.1473E+02  0.6542E+01
    -20.418  0.1470E+02  0.6758E+01
    -20.404  0.1466E+02  0.6974E+01
    -20.389  0.1462E+02  0.7189E+01
    -20.374  0.1457E+02  0.7403E+01
    -20.360  0.1452E+02  0.7617E+01
    -20.345  0.1446E+02  0.7830E+01
    -20.330  0.1440E+02  0.8041E+01
    -20.315  0.1435E+02  0.8253E+01
    -20.301  0.1429E+02  0.8463E+01
    -20.286  0.1424E+02  0.8672E+01
    -20.271  0.1420E+02  0.8881E+01
    -20.257  0.1417E+02  0.9090E+01
    -20.242  0.1415E+02  0.9298E+01
    -20.227  0.1414E+02  0.9506E+01
    -20.212  0.1414E+02  0.9714E+01
    -20.198  0.1416E+02  0.9922E+01
    -20.183  0.1420E+02  0.1013E+02
    -20.168  0.1424E+02  0.1034E+02
    -20.154  0.1430E+02  0.1055E+02
    -20.139  0.1437E+02  0.1076E+02
    -20.124  0.1445E+02  0.1098E+02
    -20.109  0.1453E+02  0.1119E+02
    -20.095  0.1461E+02  0.1140E+02
    -20.080  0.1469E+02  0.1162E+02
    -20.065  0.1476E+02  0.1184E+02
    -20.051  0.1482E+02  0.1206E+02
    -20.036  0.1488E+02  0.1227E+02
    -20.021  0.1491E+02  0.1249E+02
    -20.006  0.1494E+02  0.1271E+02
    -19.992  0.1494E+02  0.1293E+02
    -19.977  0.1493E+02  0.1315E+02
    -19.962  0.1491E+02  0.1337E+02
    -19.948  0.1487E+02  0.1359E+02
    -19.933  0.1482E+02  0.1381E+02
    -19.918  0.1476E+02  0.1403E+02
    -19.903  0.1468E+02  0.1424E+02
    -19.889  0.1461E+02  0.1446E+02
    -19.874  0.1453E+02  0.1467E+02
    -19.859  0.1444E+02  0.1488E+02
    -19.845  0.1436E+02  0.1510E+02
    -19.830  0.1428E+02  0.1531E+02
    -19.815  0.1420E+02  0.1551E+02
    -19.800  0.1412E+02  0.1572E+02
    -19.786  0.1406E+02  0.1593E+02
    -19.771  0.1400E+02  0.1613E+02
    -19.756  0.1394E+02  0.1634E+02
    -19.742  0.1390E+02  0.1654E+02
    -19.727  0.1386E+02  0.1675E+02
    -19.712  0.1384E+02  0.1695E+02
    -19.697  0.1383E+02  0.1716E+02
    -19.683  0.1383E+02  0.1736E+02
    -19.668  0.1384E+02  0.1756E+02
    -19.653  0.1387E+02  0.1777E+02
    -19.639  0.1391E+02  0.1797E+02
    -19.624  0.1396E+02  0.1818E+02
    -19.609  0.1403E+02  0.1838E+02
    -19.594  0.1411E+02  0.1859E+02
    -19.580  0.1421E+02  0.1880E+02
    -19.565  0.1432E+02  0.1901E+02
    -19.550  0.1444E+02  0.1922E+02
    -19.536  0.1457E+02  0.1944E+02
    -19.521  0.1471E+02  0.1965E+02
    -19.506  0.1486E+02  0.1987E+02
    -19.491  0.1501E+02  0.2009E+02
    -19.477  0.1516E+02  0.2032E+02
    -19.462  0.1531E+02  0.2054E+02
    -19.447  0.1545E+02  0.2077E+02
    -19.433  0.1558E+02  0.2100E+02
    -19.418  0.1569E+02  0.2123E+02
    -19.403  0.1578E+02  0.2146E+02
    -19.388  0.1583E+02  0.2169E+02
    -19.374  0.1586E+02  0.2193E+02
    -19.359  0.1585E+02  0.2216E+02
    -19.344  0.1580E+02  0.2239E+02
    -19.330  0.1570E+02  0.2262E+02
    -19.315  0.1557E+02  0.2285E+02
    -19.300  0.1540E+02  0.2308E+02
    -19.285  0.1518E+02  0.2330E+02
    -19.271  0.1494E+02  0.2352E+02
    -19.256  0.1467E+02  0.2374E+02
    -19.241  0.1439E+02  0.2395E+02
    -19.227  0.1410E+02  0.2416E+02
    -19.212  0.1381E+02  0.2436E+02
    -19.197  0.1354E+02  0.2456E+02
    -19.182  0.1329E+02  0.2476E+02
    -19.168  0.1308E+02  0.2495E+02
    -19.153  0.1291E+02  0.2514E+02
    -19.138  0.1279E+02  0.2533E+02
    -19.124  0.1273E+02  0.2551E+02
    -19.109  0.1273E+02  0.2570E+02
    -19.094  0.1280E+02  0.2589E+02
    -19.079  0.1292E+02  0.2608E+02
    -19.065  0.1311E+02  0.2627E+02
    -19.050  0.1334E+02  0.2647E+02
    -19.035  0.1361E+02  0.2667E+02
    -19.021  0.1391E+02  0.2687E+02
    -19.006  0.1423E+02  0.2708E+02
    -18.991  0.1456E+02  0.2730E+02
    -18.976  0.1489E+02  0.2752E+02
    -18.962  0.1520E+02  0.2774E+02
    -18.947  0.1548E+02  0.2797E+02
    -18.932  0.1574E+02  0.2820E+02
    -18.918  0.1594E+02  0.2844E+02
    -18.903  0.1611E+02  0.2867E+02
    -18.888  0.1623E+02  0.2891E+02
    -18.873  0.1629E+02  0.2915E+02
    -18.859  0.1632E+02  0.2939E+02
    -18.844  0.1629E+02  0.2963E+02
    -18.829  0.1623E+02  0.2987E+02
    -18.815  0.1614E+02  0.3011E+02
    -18.800  0.1601E+02  0.3034E+02
    -18.785  0.1587E+02  0.3058E+02
    -18.770  0.1571E+02  0.3081E+02
    -18.756  0.1553E+02  0.3104E+02
    -18.741  0.1535E+02  0.3126E+02
    -18.726  0.1517E+02  0.3148E+02
    -18.712  0.1499E+02  0.3171E+02
    -18.697  0.1481E+02  0.3192E+02
    -18.682  0.1464E+02  0.3214E+02
    -18.667  0.1448E+02  0.3235E+02
    -18.653  0.1432E+02  0.3256E+02
    -18.638  0.1417E+02  0.3277E+02
    -18.623  0.1404E+02  0.3298E+02
    -18.609  0.1391E+02  0.3318E+02
    -18.594  0.1380E+02  0.3339E+02
    -18.579  0.1370E+02  0.3359E+02
    -18.564  0.1361E+02  0.3379E+02
    -18.550  0.1353E+02  0.3399E+02
    -18.535  0.1348E+02  0.3418E+02
    -18.520  0.1343E+02  0.3438E+02
    -18.506  0.1341E+02  0.3458E+02
    -18.491  0.1340E+02  0.3478E+02
    -18.476  0.1341E+02  0.3497E+02
    -18.461  0.1344E+02  0.3517E+02
    -18.447  0.1348E+02  0.3537E+02
    -18.432  0.1355E+02  0.3557E+02
    -18.417  0.1364E+02  0.3577E+02
    -18.403  0.1375E+02  0.3597E+02
    -18.388  0.1388E+02  0.3618E+02
    -18.373  0.1403E+02  0.3638E+02
    -18.358  0.1420E+02  0.3659E+02
    -18.344  0.1439E+02  0.3680E+02
    -18.329  0.1460E+02  0.3702E+02
    -18.314  0.1482E+02  0.3724E+02
    -18.300  0.1506E+02  0.3746E+02
    -18.285  0.1531E+02  0.3768E+02
    -18.270  0.1557E+02  0.3791E+02
    -18.255  0.1583E+02  0.3815E+02
    -18.241  0.1608E+02  0.3838E+02
    -18.226  0.1633E+02  0.3862E+02
    -18.211  0.1656E+02  0.3887E+02
    -18.197  0.1676E+02  0.3911E+02
    -18.182  0.1694E+02  0.3936E+02
    -18.167  0.1709E+02  0.3961E+02
    -18.152  0.1720E+02  0.3987E+02
    -18.138  0.1727E+02  0.4012E+02
    -18.123  0.1730E+02  0.4038E+02
    -18.108  0.1729E+02  0.4063E+02
    -18.094  0.1723E+02  0.4088E+02
    -18.079  0.1712E+02  0.4114E+02
    -18.064  0.1698E+02  0.4139E+02
    -18.049  0.1680E+02  0.4163E+02
    -18.035  0.1658E+02  0.4188E+02
    -18.020  0.1634E+02  0.4212E+02
    -18.005  0.1606E+02  0.4235E+02
    -17.991  0.1577E+02  0.4259E+02
    -17.976  0.1545E+02  0.4281E+02
    -17.961  0.1513E+02  0.4304E+02
    -17.946  0.1479E+02  0.4325E+02
    -17.932  0.1445E+02  0.4347E+02
    -17.917  0.1412E+02  0.4367E+02
    -17.902  0.1378E+02  0.4388E+02
    -17.888  0.1347E+02  0.4407E+02
    -17.873  0.1316E+02  0.4427E+02
    -17.858  0.1289E+02  0.4446E+02
    -17.843  0.1264E+02  0.4464E+02
    -17.829  0.1242E+02  0.4483E+02
    -17.814  0.1225E+02  0.4501E+02
    -17.799  0.1213E+02  0.4518E+02
    -17.785  0.1205E+02  0.4536E+02
    -17.770  0.1203E+02  0.4554E+02
    -17.755  0.1207E+02  0.4572E+02
    -17.740  0.1218E+02  0.4590E+02
    -17.726  0.1234E+02  0.4608E+02
    -17.711  0.1256E+02  0.4626E+02
    -17.696  0.1284E+02  0.4645E+02
    -17.682  0.1317E+02  0.4665E+02
    -17.667  0.1355E+02  0.4684E+02
    -17.652  0.1397E+02  0.4705E+02
    -17.637  0.1441E+02  0.4726E+02
    -17.623  0.1488E+02  0.4748E+02
    -17.608  0.1535E+02  0.4771E+02
    -17.593  0.1582E+02  0.4794E+02
    -17.579  0.1628E+02  0.4818E+02
    -17.564  0.1672E+02  0.4843E+02
    -17.549  0.1712E+02  0.4868E+02
    -17.534  0.1748E+02  0.4893E+02
    -17.520  0.1780E+02  0.4920E+02
    -17.505  0.1807E+02  0.4946E+02
    -17.490  0.1828E+02  0.4973E+02
    -17.476  0.1843E+02  0.5000E+02
    -17.461  0.1853E+02  0.5027E+02
    -17.446  0.1857E+02  0.5055E+02
    -17.431  0.1855E+02  0.5082E+02
    -17.417  0.1848E+02  0.5109E+02
    -17.402  0.1836E+02  0.5136E+02
    -17.387  0.1819E+02  0.5163E+02
    -17.373  0.1799E+02  0.5190E+02
    -17.358  0.1774E+02  0.5216E+02
    -17.343  0.1747E+02  0.5241E+02
    -17.328  0.1716E+02  0.5267E+02
    -17.314  0.1684E+02  0.5291E+02
    -17.299  0.1650E+02  0.5316E+02
    -17.284  0.1616E+02  0.5339E+02
    -17.270  0.1581E+02  0.5363E+02
    -17.255  0.1548E+02  0.5386E+02
    -17.240  0.1515E+02  0.5408E+02
    -17.225  0.1484E+02  0.5430E+02
    -17.211  0.1456E+02  0.5451E+02
    -17.196  0.1431E+02  0.5472E+02
    -17.181  0.1410E+02  0.5493E+02
    -17.167  0.1393E+02  0.5513E+02
    -17.152  0.1380E+02  0.5534E+02
    -17.137  0.1371E+02  0.5554E+02
    -17.122  0.1368E+02  0.5574E+02
    -17.108  0.1368E+02  0.5594E+02
    -17.093  0.1373E+02  0.5614E+02
    -17.078  0.1381E+02  0.5635E+02
    -17.064  0.1392E+02  0.5655E+02
    -17.049  0.1406E+02  0.5676E+02
    -17.034  0.1422E+02  0.5697E+02
    -17.019  0.1439E+02  0.5718E+02
    -17.005  0.1457E+02  0.5739E+02
    -16.990  0.1474E+02  0.5761E+02
    -16.975  0.1490E+02  0.5783E+02
    -16.961  0.1506E+02  0.5805E+02
    -16.946  0.1519E+02  0.5827E+02
    -16.931  0.1530E+02  0.5850E+02
    -16.916  0.1538E+02  0.5873E+02
    -16.902  0.1544E+02  0.5895E+02
    -16.887  0.1548E+02  0.5918E+02
    -16.872  0.1549E+02  0.5941E+02
    -16.858  0.1548E+02  0.5964E+02
    -16.843  0.1546E+02  0.5986E+02
    -16.828  0.1542E+02  0.6009E+02
    -16.813  0.1538E+02  0.6032E+02
    -16.799  0.1533E+02  0.6054E+02
    -16.784  0.1529E+02  0.6077E+02
    -16.769  0.1525E+02  0.6099E+02
    -16.755  0.1523E+02  0.6122E+02
    -16.740  0.1522E+02  0.6144E+02
    -16.725  0.1524E+02  0.6166E+02
    -16.710  0.1528E+02  0.6189E+02
    -16.696  0.1535E+02  0.6212E+02
    -16.681  0.1544E+02  0.6234E+02
    -16.666  0.1555E+02  0.6257E+02
    -16.652  0.1569E+02  0.6280E+02
    -16.637  0.1585E+02  0.6304E+02
    -16.622  0.1602E+02  0.6327E+02
    -16.607  0.1621E+02  0.6351E+02
    -16.593  0.1639E+02  0.6375E+02
    -16.578  0.1658E+02  0.6399E+02
    -16.563  0.1677E+02  0.6424E+02
    -16.549  0.1694E+02  0.6449E+02
    -16.534  0.1710E+02  0.6474E+02
    -16.519  0.1724E+02  0.6500E+02
    -16.504  0.1736E+02  0.6525E+02
    -16.490  0.1746E+02  0.6551E+02
    -16.475  0.1754E+02  0.6577E+02
    -16.460  0.1759E+02  0.6603E+02
    -16.446  0.1762E+02  0.6628E+02
    -16.431  0.1763E+02  0.6654E+02
    -16.416  0.1762E+02  0.6680E+02
    -16.401  0.1759E+02  0.6706E+02
    -16.387  0.1754E+02  0.6732E+02
    -16.372  0.1748E+02  0.6758E+02
    -16.357  0.1740E+02  0.6783E+02
    -16.343  0.1731E+02  0.6809E+02
    -16.328  0.1720E+02  0.6834E+02
    -16.313  0.1708E+02  0.6859E+02
    -16.298  0.1695E+02  0.6884E+02
    -16.284  0.1681E+02  0.6909E+02
    -16.269  0.1666E+02  0.6933E+02
    -16.254  0.1651E+02  0.6958E+02
    -16.240  0.1635E+02  0.6982E+02
    -16.225  0.1620E+02  0.7006E+02
    -16.210  0.1604E+02  0.7029E+02
    -16.195  0.1589E+02  0.7053E+02
    -16.181  0.1575E+02  0.7076E+02
    -16.166  0.1563E+02  0.7099E+02
    -16.151  0.1552E+02  0.7122E+02
    -16.137  0.1543E+02  0.7144E+02
    -16.122  0.1536E+02  0.7167E+02
    -16.107  0.1532E+02  0.7189E+02
    -16.092  0.1531E+02  0.7212E+02
    -16.078  0.1532E+02  0.7235E+02
    -16.063  0.1536E+02  0.7257E+02
    -16.048  0.1543E+02  0.7280E+02
    -16.034  0.1552E+02  0.7303E+02
    -16.019  0.1564E+02  0.7326E+02
    -16.004  0.1579E+02  0.7349E+02
    -15.989  0.1596E+02  0.7372E+02
    -15.975  0.1614E+02  0.7396E+02
    -15.960  0.1635E+02  0.7420E+02
    -15.945  0.1657E+02  0.7445E+02
    -15.931  0.1680E+02  0.7469E+02
    -15.916  0.1705E+02  0.7494E+02
    -15.901  0.1730E+02  0.7520E+02
    -15.886  0.1755E+02  0.7546E+02
    -15.872  0.1780E+02  0.7572E+02
    -15.857  0.1805E+02  0.7598E+02
    -15.842  0.1828E+02  0.7625E+02
    -15.827  0.1851E+02  0.7653E+02
    -15.813  0.1871E+02  0.7680E+02
    -15.798  0.1890E+02  0.7708E+02
    -15.783  0.1906E+02  0.7736E+02
    -15.769  0.1919E+02  0.7764E+02
    -15.754  0.1929E+02  0.7793E+02
    -15.739  0.1935E+02  0.7821E+02
    -15.724  0.1939E+02  0.7850E+02
    -15.710  0.1939E+02  0.7878E+02
    -15.695  0.1936E+02  0.7907E+02
    -15.680  0.1931E+02  0.7935E+02
    -15.666  0.1922E+02  0.7963E+02
    -15.651  0.1912E+02  0.7991E+02
    -15.636  0.1899E+02  0.8019E+02
    -15.621  0.1885E+02  0.8047E+02
    -15.607  0.1870E+02  0.8075E+02
    -15.592  0.1854E+02  0.8102E+02
    -15.577  0.1836E+02  0.8129E+02
    -15.563  0.1819E+02  0.8156E+02
    -15.548  0.1800E+02  0.8182E+02
    -15.533  0.1781E+02  0.8208E+02
    -15.518  0.1761E+02  0.8234E+02
    -15.504  0.1740E+02  0.8260E+02
    -15.489  0.1718E+02  0.8285E+02
    -15.474  0.1695E+02  0.8310E+02
    -15.460  0.1670E+02  0.8335E+02
    -15.445  0.1643E+02  0.8359E+02
    -15.430  0.1614E+02  0.8383E+02
    -15.415  0.1583E+02  0.8406E+02
    -15.401  0.1550E+02  0.8429E+02
    -15.386  0.1515E+02  0.8451E+02
    -15.371  0.1479E+02  0.8473E+02
    -15.357  0.1441E+02  0.8494E+02
    -15.342  0.1402E+02  0.8515E+02
    -15.327  0.1363E+02  0.8535E+02
    -15.312  0.1324E+02  0.8554E+02
    -15.298  0.1284E+02  0.8573E+02
    -15.283  0.1246E+02  0.8591E+02
    -15.268  0.1208E+02  0.8609E+02
    -15.254  0.1171E+02  0.8626E+02
    -15.239  0.1137E+02  0.8643E+02
    -15.224  0.1104E+02  0.8659E+02
    -15.209  0.1073E+02  0.8675E+02
    -15.195  0.1044E+02  0.8691E+02
    -15.180  0.1017E+02  0.8705E+02
    -15.165  0.9932E+01  0.8720E+02
    -15.151  0.9713E+01  0.8734E+02
    -15.136  0.9519E+01  0.8748E+02
    -15.121  0.9350E+01  0.8762E+02
    -15.106  0.9206E+01  0.8776E+02
    -15.092  0.9089E+01  0.8789E+02
    -15.077  0.8997E+01  0.8802E+02
    -15.062  0.8933E+01  0.8815E+02
    -15.048  0.8894E+01  0.8829E+02
    -15.033  0.8882E+01  0.8842E+02
    -15.018  0.8894E+01  0.8855E+02
    -15.003  0.8931E+01  0.8868E+02
    -14.989  0.8990E+01  0.8881E+02
    -14.974  0.9068E+01  0.8894E+02
    -14.959  0.9163E+01  0.8908E+02
    -14.945  0.9272E+01  0.8922E+02
    -14.930  0.9391E+01  0.8935E+02
    -14.915  0.9517E+01  0.8949E+02
    -14.900  0.9645E+01  0.8964E+02
    -14.886  0.9772E+01  0.8978E+02
    -14.871  0.9896E+01  0.8992E+02
    -14.856  0.1001E+02  0.9007E+02
    -14.842  0.1012E+02  0.9022E+02
    -14.827  0.1022E+02  0.9037E+02
    -14.812  0.1031E+02  0.9052E+02
    -14.797  0.1039E+02  0.9068E+02
    -14.783  0.1046E+02  0.9083E+02
    -14.768  0.1053E+02  0.9099E+02
    -14.753  0.1060E+02  0.9114E+02
    -14.739  0.1066E+02  0.9130E+02
    -14.724  0.1074E+02  0.9146E+02
    -14.709  0.1081E+02  0.9161E+02
    -14.694  0.1090E+02  0.9178E+02
    -14.680  0.1100E+02  0.9194E+02
    -14.665  0.1112E+02  0.9210E+02
    -14.650  0.1125E+02  0.9227E+02
    -14.636  0.1139E+02  0.9243E+02
    -14.621  0.1154E+02  0.9260E+02
    -14.606  0.1170E+02  0.9278E+02
    -14.591  0.1187E+02  0.9295E+02
    -14.577  0.1204E+02  0.9313E+02
    -14.562  0.1220E+02  0.9331E+02
    -14.547  0.1236E+02  0.9349E+02
    -14.533  0.1251E+02  0.9367E+02
    -14.518  0.1265E+02  0.9386E+02
    -14.503  0.1278E+02  0.9405E+02
    -14.488  0.1290E+02  0.9424E+02
    -14.474  0.1300E+02  0.9443E+02
    -14.459  0.1309E+02  0.9462E+02
    -14.444  0.1317E+02  0.9482E+02
    -14.430  0.1325E+02  0.9501E+02
    -14.415  0.1333E+02  0.9521E+02
    -14.400  0.1341E+02  0.9540E+02
    -14.385  0.1350E+02  0.9560E+02
    -14.371  0.1360E+02  0.9580E+02
    -14.356  0.1370E+02  0.9600E+02
    -14.341  0.1382E+02  0.9621E+02
    -14.327  0.1395E+02  0.9641E+02
    -14.312  0.1409E+02  0.9662E+02
    -14.297  0.1424E+02  0.9683E+02
    -14.282  0.1439E+02  0.9704E+02
    -14.268  0.1453E+02  0.9726E+02
    -14.253  0.1468E+02  0.9747E+02
    -14.238  0.1481E+02  0.9769E+02
    -14.224  0.1493E+02  0.9791E+02
    -14.209  0.1504E+02  0.9813E+02
    -14.194  0.1513E+02  0.9835E+02
    -14.179  0.1520E+02  0.9858E+02
    -14.165  0.1525E+02  0.9880E+02
    -14.150  0.1529E+02  0.9903E+02
    -14.135  0.1533E+02  0.9925E+02
    -14.121  0.1536E+02  0.9948E+02
    -14.106  0.1539E+02  0.9970E+02
    -14.091  0.1544E+02  0.9993E+02
    -14.076  0.1550E+02  0.1002E+03
    -14.062  0.1559E+02  0.1004E+03
    -14.047  0.1571E+02  0.1006E+03
    -14.032  0.1586E+02  0.1009E+03
    -14.018  0.1606E+02  0.1011E+03
    -14.003  0.1629E+02  0.1013E+03
    -13.988  0.1656E+02  0.1016E+03
    -13.973  0.1686E+02  0.1018E+03
    -13.959  0.1719E+02  0.1021E+03
    -13.944  0.1754E+02  0.1023E+03
    -13.929  0.1791E+02  0.1026E+03
    -13.915  0.1828E+02  0.1029E+03
    -13.900  0.1865E+02  0.1031E+03
    -13.885  0.1900E+02  0.1034E+03
    -13.870  0.1932E+02  0.1037E+03
    -13.856  0.1962E+02  0.1040E+03
    -13.841  0.1987E+02  0.1043E+03
    -13.826  0.2008E+02  0.1046E+03
    -13.812  0.2025E+02  0.1049E+03
    -13.797  0.2036E+02  0.1052E+03
    -13.782  0.2042E+02  0.1055E+03
    -13.767  0.2042E+02  0.1058E+03
    -13.753  0.2038E+02  0.1061E+03
    -13.738  0.2030E+02  0.1064E+03
    -13.723  0.2017E+02  0.1067E+03
    -13.709  0.2001E+02  0.1070E+03
    -13.694  0.1982E+02  0.1073E+03
    -13.679  0.1960E+02  0.1075E+03
    -13.664  0.1937E+02  0.1078E+03
    -13.650  0.1912E+02  0.1081E+03
    -13.635  0.1888E+02  0.1084E+03
    -13.620  0.1863E+02  0.1087E+03
    -13.606  0.1839E+02  0.1089E+03
    -13.591  0.1816E+02  0.1092E+03
    -13.576  0.1795E+02  0.1095E+03
    -13.561  0.1775E+02  0.1097E+03
    -13.547  0.1758E+02  0.1100E+03
    -13.532  0.1743E+02  0.1102E+03
    -13.517  0.1730E+02  0.1105E+03
    -13.503  0.1719E+02  0.1108E+03
    -13.488  0.1710E+02  0.1110E+03
    -13.473  0.1702E+02  0.1113E+03
    -13.458  0.1696E+02  0.1115E+03
    -13.444  0.1691E+02  0.1118E+03
    -13.429  0.1687E+02  0.1120E+03
    -13.414  0.1683E+02  0.1122E+03
    -13.400  0.1679E+02  0.1125E+03
    -13.385  0.1674E+02  0.1127E+03
    -13.370  0.1668E+02  0.1130E+03
    -13.355  0.1661E+02  0.1132E+03
    -13.341  0.1654E+02  0.1135E+03
    -13.326  0.1645E+02  0.1137E+03
    -13.311  0.1636E+02  0.1140E+03
    -13.297  0.1626E+02  0.1142E+03
    -13.282  0.1616E+02  0.1144E+03
    -13.267  0.1607E+02  0.1147E+03
    -13.252  0.1599E+02  0.1149E+03
    -13.238  0.1592E+02  0.1151E+03
    -13.223  0.1587E+02  0.1154E+03
    -13.208  0.1585E+02  0.1156E+03
    -13.194  0.1585E+02  0.1158E+03
    -13.179  0.1588E+02  0.1161E+03
    -13.164  0.1595E+02  0.1163E+03
    -13.149  0.1605E+02  0.1165E+03
    -13.135  0.1618E+02  0.1168E+03
    -13.120  0.1634E+02  0.1170E+03
    -13.105  0.1652E+02  0.1173E+03
    -13.091  0.1672E+02  0.1175E+03
    -13.076  0.1694E+02  0.1178E+03
    -13.061  0.1717E+02  0.1180E+03
    -13.046  0.1740E+02  0.1183E+03
    -13.032  0.1763E+02  0.1185E+03
    -13.017  0.1785E+02  0.1188E+03
    -13.002  0.1805E+02  0.1191E+03
    -12.988  0.1824E+02  0.1193E+03
    -12.973  0.1839E+02  0.1196E+03
    -12.958  0.1852E+02  0.1199E+03
    -12.943  0.1861E+02  0.1201E+03
    -12.929  0.1866E+02  0.1204E+03
    -12.914  0.1867E+02  0.1207E+03
    -12.899  0.1863E+02  0.1210E+03
    -12.885  0.1855E+02  0.1212E+03
    -12.870  0.1843E+02  0.1215E+03
    -12.855  0.1826E+02  0.1218E+03
    -12.840  0.1805E+02  0.1220E+03
    -12.826  0.1780E+02  0.1223E+03
    -12.811  0.1752E+02  0.1226E+03
    -12.796  0.1721E+02  0.1228E+03
    -12.782  0.1687E+02  0.1231E+03
    -12.767  0.1651E+02  0.1233E+03
    -12.752  0.1614E+02  0.1235E+03
    -12.737  0.1577E+02  0.1238E+03
    -12.723  0.1540E+02  0.1240E+03
    -12.708  0.1503E+02  0.1242E+03
    -12.693  0.1468E+02  0.1244E+03
    -12.679  0.1436E+02  0.1247E+03
    -12.664  0.1406E+02  0.1249E+03
    -12.649  0.1379E+02  0.1251E+03
    -12.634  0.1355E+02  0.1253E+03
    -12.620  0.1334E+02  0.1255E+03
    -12.605  0.1318E+02  0.1257E+03
    -12.590  0.1304E+02  0.1258E+03
    -12.576  0.1294E+02  0.1260E+03
    -12.561  0.1287E+02  0.1262E+03
    -12.546  0.1283E+02  0.1264E+03
    -12.531  0.1281E+02  0.1266E+03
    -12.517  0.1280E+02  0.1268E+03
    -12.502  0.1281E+02  0.1270E+03
    -12.487  0.1283E+02  0.1272E+03
    -12.473  0.1285E+02  0.1274E+03
    -12.458  0.1287E+02  0.1275E+03
    -12.443  0.1289E+02  0.1277E+03
    -12.428  0.1291E+02  0.1279E+03
    -12.414  0.1291E+02  0.1281E+03
    -12.399  0.1290E+02  0.1283E+03
    -12.384  0.1288E+02  0.1285E+03
    -12.370  0.1285E+02  0.1287E+03
    -12.355  0.1281E+02  0.1289E+03
    -12.340  0.1276E+02  0.1291E+03
    -12.325  0.1270E+02  0.1292E+03
    -12.311  0.1262E+02  0.1294E+03
    -12.296  0.1255E+02  0.1296E+03
    -12.281  0.1246E+02  0.1298E+03
    -12.267  0.1238E+02  0.1300E+03
    -12.252  0.1230E+02  0.1302E+03
    -12.237  0.1222E+02  0.1303E+03
    -12.222  0.1215E+02  0.1305E+03
    -12.208  0.1210E+02  0.1307E+03
    -12.193  0.1206E+02  0.1309E+03
    -12.178  0.1205E+02  0.1311E+03
    -12.164  0.1207E+02  0.1312E+03
    -12.149  0.1211E+02  0.1314E+03
    -12.134  0.1219E+02  0.1316E+03
    -12.119  0.1231E+02  0.1318E+03
    -12.105  0.1246E+02  0.1320E+03
    -12.090  0.1264E+02  0.1321E+03
    -12.075  0.1287E+02  0.1323E+03
    -12.061  0.1312E+02  0.1325E+03
    -12.046  0.1340E+02  0.1327E+03
    -12.031  0.1370E+02  0.1329E+03
    -12.016  0.1401E+02  0.1331E+03
    -12.002  0.1433E+02  0.1333E+03
    -11.987  0.1465E+02  0.1336E+03
    -11.972  0.1495E+02  0.1338E+03
    -11.958  0.1524E+02  0.1340E+03
    -11.943  0.1551E+02  0.1342E+03
    -11.928  0.1574E+02  0.1345E+03
    -11.913  0.1594E+02  0.1347E+03
    -11.899  0.1611E+02  0.1349E+03
    -11.884  0.1624E+02  0.1352E+03
    -11.869  0.1633E+02  0.1354E+03
    -11.855  0.1639E+02  0.1357E+03
    -11.840  0.1642E+02  0.1359E+03
    -11.825  0.1643E+02  0.1361E+03
    -11.810  0.1643E+02  0.1364E+03
    -11.796  0.1641E+02  0.1366E+03
    -11.781  0.1639E+02  0.1369E+03
    -11.766  0.1637E+02  0.1371E+03
    -11.752  0.1636E+02  0.1373E+03
    -11.737  0.1636E+02  0.1376E+03
    -11.722  0.1638E+02  0.1378E+03
    -11.707  0.1643E+02  0.1381E+03
    -11.693  0.1649E+02  0.1383E+03
    -11.678  0.1657E+02  0.1385E+03
    -11.663  0.1667E+02  0.1388E+03
    -11.649  0.1679E+02  0.1390E+03
    -11.634  0.1692E+02  0.1393E+03
    -11.619  0.1706E+02  0.1395E+03
    -11.604  0.1720E+02  0.1398E+03
    -11.590  0.1733E+02  0.1401E+03
    -11.575  0.1745E+02  0.1403E+03
    -11.560  0.1756E+02  0.1406E+03
    -11.546  0.1765E+02  0.1408E+03
    -11.531  0.1771E+02  0.1411E+03
    -11.516  0.1774E+02  0.1413E+03
    -11.501  0.1774E+02  0.1416E+03
    -11.487  0.1770E+02  0.1419E+03
    -11.472  0.1764E+02  0.1421E+03
    -11.457  0.1754E+02  0.1424E+03
    -11.443  0.1741E+02  0.1426E+03
    -11.428  0.1725E+02  0.1429E+03
    -11.413  0.1708E+02  0.1431E+03
    -11.398  0.1688E+02  0.1434E+03
    -11.384  0.1668E+02  0.1436E+03
    -11.369  0.1647E+02  0.1439E+03
    -11.354  0.1627E+02  0.1441E+03
    -11.340  0.1608E+02  0.1444E+03
    -11.325  0.1590E+02  0.1446E+03
    -11.310  0.1575E+02  0.1448E+03
    -11.295  0.1563E+02  0.1451E+03
    -11.281  0.1553E+02  0.1453E+03
    -11.266  0.1547E+02  0.1455E+03
    -11.251  0.1545E+02  0.1457E+03
    -11.237  0.1546E+02  0.1460E+03
    -11.222  0.1552E+02  0.1462E+03
    -11.207  0.1561E+02  0.1464E+03
    -11.192  0.1573E+02  0.1467E+03
    -11.178  0.1589E+02  0.1469E+03
    -11.163  0.1608E+02  0.1471E+03
    -11.148  0.1630E+02  0.1474E+03
    -11.134  0.1654E+02  0.1476E+03
    -11.119  0.1679E+02  0.1479E+03
    -11.104  0.1706E+02  0.1481E+03
    -11.089  0.1734E+02  0.1484E+03
    -11.075  0.1763E+02  0.1486E+03
    -11.060  0.1791E+02  0.1489E+03
    -11.045  0.1819E+02  0.1492E+03
    -11.031  0.1845E+02  0.1494E+03
    -11.016  0.1870E+02  0.1497E+03
    -11.001  0.1892E+02  0.1500E+03
    -10.986  0.1911E+02  0.1503E+03
    -10.972  0.1927E+02  0.1505E+03
    -10.957  0.1940E+02  0.1508E+03
    -10.942  0.1948E+02  0.1511E+03
    -10.928  0.1952E+02  0.1514E+03
    -10.913  0.1950E+02  0.1517E+03
    -10.898  0.1944E+02  0.1520E+03
    -10.883  0.1933E+02  0.1523E+03
    -10.869  0.1917E+02  0.1525E+03
    -10.854  0.1897E+02  0.1528E+03
    -10.839  0.1872E+02  0.1531E+03
    -10.825  0.1844E+02  0.1534E+03
    -10.810  0.1814E+02  0.1536E+03
    -10.795  0.1781E+02  0.1539E+03
    -10.780  0.1748E+02  0.1542E+03
    -10.766  0.1715E+02  0.1544E+03
    -10.751  0.1683E+02  0.1547E+03
    -10.736  0.1654E+02  0.1549E+03