 139 139   0   0
  0.4782423E+02  0.2027835E-08  0.1639080E-08  0.2000000E-08  0.5000000E-15
  1.000000000000000E-004
  CAR 
 unknown system                          
      3.50619676    -24.16635130 2000     -3.51106957      1.00000000
    -24.166  0.0000E+00  0.0000E+00
    -24.153  0.0000E+00  0.0000E+00
    -24.139  0.0000E+00  0.0000E+00
    -24.125  0.0000E+00  0.0000E+00
    -24.111  0.0000E+00  0.0000E+00
    -24.097  0.0000E+00  0.0000E+00
    -24.083  0.0000E+00  0.0000E+00
    -24.069  0.0000E+00  0.0000E+00
    -24.056  0.0000E+00  0.0000E+00
    -24.042  0.0000E+00  0.0000E+00
    -24.028  0.0000E+00  0.0000E+00
    -24.014  0.0000E+00  0.0000E+00
    -24.000  0.0000E+00  0.0000E+00
    -23.986  0.0000E+00  0.0000E+00
    -23.973  0.0000E+00  0.0000E+00
    -23.959  0.0000E+00  0.0000E+00
    -23.945  0.0000E+00  0.0000E+00
    -23.931  0.0000E+00  0.0000E+00
    -23.917  0.0000E+00  0.0000E+00
    -23.903  0.0000E+00  0.0000E+00
    -23.889  0.0000E+00  0.0000E+00
    -23.876  0.0000E+00  0.0000E+00
    -23.862  0.0000E+00  0.0000E+00
    -23.848  0.0000E+00  0.0000E+00
    -23.834  0.0000E+00  0.0000E+00
    -23.820  0.0000E+00  0.0000E+00
    -23.806  0.0000E+00  0.0000E+00
    -23.793  0.0000E+00  0.0000E+00
    -23.779  0.0000E+00  0.0000E+00
    -23.765  0.0000E+00  0.0000E+00
    -23.751  0.0000E+00  0.0000E+00
    -23.737  0.0000E+00  0.0000E+00
    -23.723  0.0000E+00  0.0000E+00
    -23.710  0.0000E+00  0.0000E+00
    -23.696  0.0000E+00  0.0000E+00
    -23.682  0.0000E+00  0.0000E+00
    -23.668  0.0000E+00  0.0000E+00
    -23.654  0.0000E+00  0.0000E+00
    -23.640  0.0000E+00  0.0000E+00
    -23.626  0.0000E+00  0.0000E+00
    -23.613  0.0000E+00  0.0000E+00
    -23.599  0.0000E+00  0.0000E+00
    -23.585  0.0000E+00  0.0000E+00
    -23.571  0.0000E+00  0.0000E+00
    -23.557  0.0000E+00  0.0000E+00
    -23.543  0.0000E+00  0.0000E+00
    -23.530  0.0000E+00  0.0000E+00
    -23.516  0.0000E+00  0.0000E+00
    -23.502  0.0000E+00  0.0000E+00
    -23.488  0.0000E+00  0.0000E+00
    -23.474  0.0000E+00  0.0000E+00
    -23.460  0.0000E+00  0.0000E+00
    -23.447  0.0000E+00  0.0000E+00
    -23.433  0.0000E+00  0.0000E+00
    -23.419  0.0000E+00  0.0000E+00
    -23.405  0.0000E+00  0.0000E+00
    -23.391  0.0000E+00  0.0000E+00
    -23.377  0.0000E+00  0.0000E+00
    -23.363  0.0000E+00  0.0000E+00
    -23.350  0.2673E-14  0.3701E-16
    -23.336  0.5347E-14  0.1110E-15
    -23.322  0.1069E-13  0.2591E-15
    -23.308  0.1871E-13  0.5181E-15
    -23.294  0.4277E-13  0.1110E-14
    -23.280  0.9624E-13  0.2442E-14
    -23.267  0.2103E-12  0.5354E-14
    -23.253  0.4500E-12  0.1158E-13
    -23.239  0.9562E-12  0.2482E-13
    -23.225  0.2019E-11  0.5277E-13
    -23.211  0.4209E-11  0.1110E-12
    -23.197  0.8702E-11  0.2315E-12
    -23.183  0.1782E-10  0.4782E-12
    -23.170  0.3613E-10  0.9783E-12
    -23.156  0.7258E-10  0.1983E-11
    -23.142  0.1444E-09  0.3982E-11
    -23.128  0.2845E-09  0.7921E-11
    -23.114  0.5554E-09  0.1561E-10
    -23.100  0.1074E-08  0.3047E-10
    -23.087  0.2056E-08  0.5893E-10
    -23.073  0.3899E-08  0.1129E-09
    -23.059  0.7325E-08  0.2143E-09
    -23.045  0.1363E-07  0.4030E-09
    -23.031  0.2512E-07  0.7507E-09
    -23.017  0.4586E-07  0.1386E-08
    -23.004  0.8291E-07  0.2533E-08
    -22.990  0.1485E-06  0.4589E-08
    -22.976  0.2634E-06  0.8235E-08
    -22.962  0.4628E-06  0.1464E-07
    -22.948  0.8053E-06  0.2579E-07
    -22.934  0.1388E-05  0.4500E-07
    -22.920  0.2370E-05  0.7781E-07
    -22.907  0.4008E-05  0.1333E-06
    -22.893  0.6713E-05  0.2262E-06
    -22.879  0.1114E-04  0.3804E-06
    -22.865  0.1830E-04  0.6337E-06
    -22.851  0.2979E-04  0.1046E-05
    -22.837  0.4803E-04  0.1711E-05
    -22.824  0.7669E-04  0.2773E-05
    -22.810  0.1213E-03  0.4452E-05
    -22.796  0.1901E-03  0.7083E-05
    -22.782  0.2950E-03  0.1117E-04
    -22.768  0.4534E-03  0.1744E-04
    -22.754  0.6903E-03  0.2700E-04
    -22.741  0.1041E-02  0.4141E-04
    -22.727  0.1555E-02  0.6294E-04
    -22.713  0.2301E-02  0.9480E-04
    -22.699  0.3373E-02  0.1415E-03
    -22.685  0.4898E-02  0.2093E-03
    -22.671  0.7044E-02  0.3068E-03
    -22.657  0.1003E-01  0.4457E-03
    -22.644  0.1416E-01  0.6417E-03
    -22.630  0.1980E-01  0.9158E-03
    -22.616  0.2741E-01  0.1295E-02
    -22.602  0.3761E-01  0.1816E-02
    -22.588  0.5110E-01  0.2523E-02
    -22.574  0.6880E-01  0.3476E-02
    -22.561  0.9176E-01  0.4746E-02
    -22.547  0.1212E+00  0.6424E-02
    -22.533  0.1587E+00  0.8621E-02
    -22.519  0.2058E+00  0.1147E-01
    -22.505  0.2645E+00  0.1513E-01
    -22.491  0.3368E+00  0.1979E-01
    -22.477  0.4249E+00  0.2568E-01
    -22.464  0.5311E+00  0.3303E-01
    -22.450  0.6579E+00  0.4214E-01
    -22.436  0.8077E+00  0.5332E-01
    -22.422  0.9827E+00  0.6692E-01
    -22.408  0.1185E+01  0.8333E-01
    -22.394  0.1417E+01  0.1029E+00
    -22.381  0.1678E+01  0.1262E+00
    -22.367  0.1972E+01  0.1535E+00
    -22.353  0.2296E+01  0.1852E+00
    -22.339  0.2652E+01  0.2220E+00
    -22.325  0.3037E+01  0.2640E+00
    -22.311  0.3449E+01  0.3117E+00
    -22.298  0.3886E+01  0.3655E+00
    -22.284  0.4344E+01  0.4257E+00
    -22.270  0.4819E+01  0.4924E+00
    -22.256  0.5304E+01  0.5658E+00
    -22.242  0.5796E+01  0.6460E+00
    -22.228  0.6288E+01  0.7331E+00
    -22.214  0.6775E+01  0.8269E+00
    -22.201  0.7251E+01  0.9273E+00
    -22.187  0.7710E+01  0.1034E+01
    -22.173  0.8149E+01  0.1147E+01
    -22.159  0.8562E+01  0.1265E+01
    -22.145  0.8947E+01  0.1389E+01
    -22.131  0.9301E+01  0.1518E+01
    -22.118  0.9624E+01  0.1651E+01
    -22.104  0.9916E+01  0.1788E+01
    -22.090  0.1018E+02  0.1929E+01
    -22.076  0.1041E+02  0.2073E+01
    -22.062  0.1061E+02  0.2220E+01
    -22.048  0.1080E+02  0.2370E+01
    -22.034  0.1097E+02  0.2522E+01
    -22.021  0.1112E+02  0.2676E+01
    -22.007  0.1127E+02  0.2832E+01
    -21.993  0.1141E+02  0.2990E+01
    -21.979  0.1156E+02  0.3150E+01
    -21.965  0.1171E+02  0.3312E+01
    -21.951  0.1187E+02  0.3476E+01
    -21.938  0.1204E+02  0.3643E+01
    -21.924  0.1222E+02  0.3812E+01
    -21.910  0.1241E+02  0.3984E+01
    -21.896  0.1261E+02  0.4158E+01
    -21.882  0.1282E+02  0.4336E+01
    -21.868  0.1303E+02  0.4516E+01
    -21.855  0.1323E+02  0.4699E+01
    -21.841  0.1343E+02  0.4885E+01
    -21.827  0.1361E+02  0.5073E+01
    -21.813  0.1376E+02  0.5264E+01
    -21.799  0.1390E+02  0.5456E+01
    -21.785  0.1400E+02  0.5650E+01
    -21.771  0.1408E+02  0.5845E+01
    -21.758  0.1412E+02  0.6041E+01
    -21.744  0.1413E+02  0.6236E+01
    -21.730  0.1412E+02  0.6432E+01
    -21.716  0.1409E+02  0.6627E+01
    -21.702  0.1405E+02  0.6821E+01
    -21.688  0.1400E+02  0.7015E+01
    -21.675  0.1396E+02  0.7208E+01
    -21.661  0.1393E+02  0.7401E+01
    -21.647  0.1393E+02  0.7594E+01
    -21.633  0.1396E+02  0.7787E+01
    -21.619  0.1404E+02  0.7982E+01
    -21.605  0.1417E+02  0.8178E+01
    -21.592  0.1435E+02  0.8376E+01
    -21.578  0.1458E+02  0.8578E+01
    -21.564  0.1487E+02  0.8784E+01
    -21.550  0.1522E+02  0.8995E+01
    -21.536  0.1562E+02  0.9211E+01
    -21.522  0.1606E+02  0.9433E+01
    -21.508  0.1653E+02  0.9662E+01
    -21.495  0.1703E+02  0.9898E+01
    -21.481  0.1755E+02  0.1014E+02
    -21.467  0.1808E+02  0.1039E+02
    -21.453  0.1861E+02  0.1065E+02
    -21.439  0.1913E+02  0.1091E+02
    -21.425  0.1962E+02  0.1119E+02
    -21.412  0.2009E+02  0.1146E+02
    -21.398  0.2053E+02  0.1175E+02
    -21.384  0.2094E+02  0.1204E+02
    -21.370  0.2130E+02  0.1233E+02
    -21.356  0.2162E+02  0.1263E+02
    -21.342  0.2189E+02  0.1293E+02
    -21.328  0.2212E+02  0.1324E+02
    -21.315  0.2231E+02  0.1355E+02
    -21.301  0.2246E+02  0.1386E+02
    -21.287  0.2257E+02  0.1417E+02
    -21.273  0.2265E+02  0.1449E+02
    -21.259  0.2270E+02  0.1480E+02
    -21.245  0.2271E+02  0.1512E+02
    -21.232  0.2271E+02  0.1543E+02
    -21.218  0.2268E+02  0.1574E+02
    -21.204  0.2264E+02  0.1606E+02
    -21.190  0.2258E+02  0.1637E+02
    -21.176  0.2251E+02  0.1668E+02
    -21.162  0.2244E+02  0.1699E+02
    -21.149  0.2236E+02  0.1730E+02
    -21.135  0.2228E+02  0.1761E+02
    -21.121  0.2220E+02  0.1792E+02
    -21.107  0.2211E+02  0.1822E+02
    -21.093  0.2203E+02  0.1853E+02
    -21.079  0.2196E+02  0.1883E+02
    -21.065  0.2188E+02  0.1914E+02
    -21.052  0.2181E+02  0.1944E+02
    -21.038  0.2175E+02  0.1974E+02
    -21.024  0.2169E+02  0.2004E+02
    -21.010  0.2164E+02  0.2034E+02
    -20.996  0.2159E+02  0.2064E+02
    -20.982  0.2155E+02  0.2093E+02
    -20.969  0.2152E+02  0.2123E+02
    -20.955  0.2150E+02  0.2153E+02
    -20.941  0.2149E+02  0.2183E+02
    -20.927  0.2148E+02  0.2213E+02
    -20.913  0.2149E+02  0.2242E+02
    -20.899  0.2151E+02  0.2272E+02
    -20.886  0.2153E+02  0.2302E+02
    -20.872  0.2156E+02  0.2332E+02
    -20.858  0.2160E+02  0.2362E+02
    -20.844  0.2165E+02  0.2392E+02
    -20.830  0.2169E+02  0.2422E+02
    -20.816  0.2174E+02  0.2452E+02
    -20.802  0.2179E+02  0.2482E+02
    -20.789  0.2183E+02  0.2512E+02
    -20.775  0.2186E+02  0.2542E+02
    -20.761  0.2189E+02  0.2573E+02
    -20.747  0.2190E+02  0.2603E+02
    -20.733  0.2189E+02  0.2633E+02
    -20.719  0.2187E+02  0.2664E+02
    -20.706  0.2183E+02  0.2694E+02
    -20.692  0.2177E+02  0.2724E+02
    -20.678  0.2169E+02  0.2754E+02
    -20.664  0.2159E+02  0.2784E+02
    -20.650  0.2147E+02  0.2814E+02
    -20.636  0.2133E+02  0.2843E+02
    -20.622  0.2118E+02  0.2872E+02
    -20.609  0.2102E+02  0.2901E+02
    -20.595  0.2085E+02  0.2930E+02
    -20.581  0.2067E+02  0.2959E+02
    -20.567  0.2049E+02  0.2987E+02
    -20.553  0.2032E+02  0.3015E+02
    -20.539  0.2015E+02  0.3043E+02
    -20.526  0.1998E+02  0.3071E+02
    -20.512  0.1983E+02  0.3098E+02
    -20.498  0.1969E+02  0.3126E+02
    -20.484  0.1956E+02  0.3153E+02
    -20.470  0.1945E+02  0.3180E+02
    -20.456  0.1935E+02  0.3206E+02
    -20.443  0.1927E+02  0.3233E+02
    -20.429  0.1919E+02  0.3260E+02
    -20.415  0.1913E+02  0.3286E+02
    -20.401  0.1908E+02  0.3313E+02
    -20.387  0.1903E+02  0.3339E+02
    -20.373  0.1899E+02  0.3365E+02
    -20.359  0.1895E+02  0.3391E+02
    -20.346  0.1891E+02  0.3418E+02
    -20.332  0.1887E+02  0.3444E+02
    -20.318  0.1882E+02  0.3470E+02
    -20.304  0.1877E+02  0.3496E+02
    -20.290  0.1871E+02  0.3522E+02
    -20.276  0.1865E+02  0.3548E+02
    -20.263  0.1858E+02  0.3573E+02
    -20.249  0.1851E+02  0.3599E+02
    -20.235  0.1844E+02  0.3624E+02
    -20.221  0.1836E+02  0.3650E+02
    -20.207  0.1829E+02  0.3675E+02
    -20.193  0.1823E+02  0.3700E+02
    -20.180  0.1817E+02  0.3726E+02
    -20.166  0.1813E+02  0.3751E+02
    -20.152  0.1811E+02  0.3776E+02
    -20.138  0.1811E+02  0.3801E+02
    -20.124  0.1814E+02  0.3826E+02
    -20.110  0.1819E+02  0.3851E+02
    -20.096  0.1828E+02  0.3876E+02
    -20.083  0.1840E+02  0.3902E+02
    -20.069  0.1855E+02  0.3928E+02
    -20.055  0.1874E+02  0.3953E+02
    -20.041  0.1895E+02  0.3980E+02
    -20.027  0.1920E+02  0.4006E+02
    -20.013  0.1947E+02  0.4033E+02
    -20.000  0.1975E+02  0.4061E+02
    -19.986  0.2005E+02  0.4088E+02
    -19.972  0.2036E+02  0.4117E+02
    -19.958  0.2067E+02  0.4145E+02
    -19.944  0.2097E+02  0.4174E+02
    -19.930  0.2127E+02  0.4204E+02
    -19.916  0.2154E+02  0.4233E+02
    -19.903  0.2180E+02  0.4264E+02
    -19.889  0.2204E+02  0.4294E+02
    -19.875  0.2225E+02  0.4325E+02
    -19.861  0.2243E+02  0.4356E+02
    -19.847  0.2259E+02  0.4387E+02
    -19.833  0.2273E+02  0.4419E+02
    -19.820  0.2286E+02  0.4450E+02
    -19.806  0.2296E+02  0.4482E+02
    -19.792  0.2306E+02  0.4514E+02
    -19.778  0.2315E+02  0.4546E+02
    -19.764  0.2325E+02  0.4578E+02
    -19.750  0.2334E+02  0.4611E+02
    -19.737  0.2345E+02  0.4643E+02
    -19.723  0.2356E+02  0.4676E+02
    -19.709  0.2369E+02  0.4708E+02
    -19.695  0.2384E+02  0.4741E+02
    -19.681  0.2400E+02  0.4775E+02
    -19.667  0.2417E+02  0.4808E+02
    -19.653  0.2437E+02  0.4842E+02
    -19.640  0.2457E+02  0.4876E+02
    -19.626  0.2479E+02  0.4910E+02
    -19.612  0.2502E+02  0.4945E+02
    -19.598  0.2525E+02  0.4980E+02
    -19.584  0.2549E+02  0.5015E+02
    -19.570  0.2572E+02  0.5051E+02
    -19.557  0.2595E+02  0.5087E+02
    -19.543  0.2617E+02  0.5123E+02
    -19.529  0.2637E+02  0.5159E+02
    -19.515  0.2656E+02  0.5196E+02
    -19.501  0.2672E+02  0.5233E+02
    -19.487  0.2685E+02  0.5270E+02
    -19.474  0.2695E+02  0.5308E+02
    -19.460  0.2702E+02  0.5345E+02
    -19.446  0.2705E+02  0.5382E+02
    -19.432  0.2704E+02  0.5420E+02
    -19.418  0.2698E+02  0.5457E+02
    -19.404  0.2688E+02  0.5494E+02
    -19.390  0.2673E+02  0.5531E+02
    -19.377  0.2654E+02  0.5568E+02
    -19.363  0.2630E+02  0.5605E+02
    -19.349  0.2601E+02  0.5641E+02
    -19.335  0.2569E+02  0.5676E+02
    -19.321  0.2533E+02  0.5711E+02
    -19.307  0.2493E+02  0.5746E+02
    -19.294  0.2451E+02  0.5780E+02
    -19.280  0.2406E+02  0.5813E+02
    -19.266  0.2360E+02  0.5846E+02
    -19.252  0.2313E+02  0.5878E+02
    -19.238  0.2266E+02  0.5909E+02
    -19.224  0.2220E+02  0.5940E+02
    -19.210  0.2174E+02  0.5970E+02
    -19.197  0.2131E+02  0.5999E+02
    -19.183  0.2090E+02  0.6028E+02
    -19.169  0.2052E+02  0.6057E+02
    -19.155  0.2017E+02  0.6085E+02
    -19.141  0.1987E+02  0.6112E+02
    -19.127  0.1961E+02  0.6139E+02
    -19.114  0.1939E+02  0.6166E+02
    -19.100  0.1922E+02  0.6193E+02
    -19.086  0.1910E+02  0.6219E+02
    -19.072  0.1903E+02  0.6246E+02
    -19.058  0.1900E+02  0.6272E+02
    -19.044  0.1902E+02  0.6298E+02
    -19.031  0.1908E+02  0.6325E+02
    -19.017  0.1918E+02  0.6351E+02
    -19.003  0.1931E+02  0.6378E+02
    -18.989  0.1948E+02  0.6405E+02
    -18.975  0.1966E+02  0.6432E+02
    -18.961  0.1987E+02  0.6460E+02
    -18.947  0.2009E+02  0.6487E+02
    -18.934  0.2032E+02  0.6515E+02
    -18.920  0.2055E+02  0.6544E+02
    -18.906  0.2079E+02  0.6573E+02
    -18.892  0.2103E+02  0.6602E+02
    -18.878  0.2126E+02  0.6631E+02
    -18.864  0.2148E+02  0.6661E+02
    -18.851  0.2170E+02  0.6691E+02
    -18.837  0.2190E+02  0.6721E+02
    -18.823  0.2208E+02  0.6752E+02
    -18.809  0.2226E+02  0.6783E+02
    -18.795  0.2241E+02  0.6814E+02
    -18.781  0.2255E+02  0.6845E+02
    -18.768  0.2267E+02  0.6876E+02
    -18.754  0.2277E+02  0.6908E+02
    -18.740  0.2286E+02  0.6940E+02
    -18.726  0.2293E+02  0.6971E+02
    -18.712  0.2298E+02  0.7003E+02
    -18.698  0.2302E+02  0.7035E+02
    -18.684  0.2304E+02  0.7067E+02
    -18.671  0.2305E+02  0.7099E+02
    -18.657  0.2306E+02  0.7131E+02
    -18.643  0.2306E+02  0.7163E+02
    -18.629  0.2305E+02  0.7194E+02
    -18.615  0.2305E+02  0.7226E+02
    -18.601  0.2306E+02  0.7258E+02
    -18.588  0.2307E+02  0.7290E+02
    -18.574  0.2309E+02  0.7322E+02
    -18.560  0.2313E+02  0.7354E+02
    -18.546  0.2318E+02  0.7386E+02
    -18.532  0.2325E+02  0.7418E+02
    -18.518  0.2334E+02  0.7451E+02
    -18.504  0.2344E+02  0.7483E+02
    -18.491  0.2357E+02  0.7516E+02
    -18.477  0.2371E+02  0.7549E+02
    -18.463  0.2387E+02  0.7582E+02
    -18.449  0.2403E+02  0.7615E+02
    -18.435  0.2421E+02  0.7649E+02
    -18.421  0.2439E+02  0.7682E+02
    -18.408  0.2457E+02  0.7716E+02
    -18.394  0.2474E+02  0.7751E+02
    -18.380  0.2491E+02  0.7785E+02
    -18.366  0.2506E+02  0.7820E+02
    -18.352  0.2519E+02  0.7855E+02
    -18.338  0.2531E+02  0.7890E+02
    -18.325  0.2541E+02  0.7925E+02
    -18.311  0.2548E+02  0.7960E+02
    -18.297  0.2554E+02  0.7995E+02
    -18.283  0.2557E+02  0.8031E+02
    -18.269  0.2558E+02  0.8066E+02
    -18.255  0.2557E+02  0.8102E+02
    -18.241  0.2554E+02  0.8137E+02
    -18.228  0.2550E+02  0.8172E+02
    -18.214  0.2545E+02  0.8208E+02
    -18.200  0.2540E+02  0.8243E+02
    -18.186  0.2534E+02  0.8278E+02
    -18.172  0.2528E+02  0.8313E+02
    -18.158  0.2523E+02  0.8348E+02
    -18.145  0.2517E+02  0.8383E+02
    -18.131  0.2513E+02  0.8417E+02
    -18.117  0.2509E+02  0.8452E+02
    -18.103  0.2506E+02  0.8487E+02
    -18.089  0.2503E+02  0.8521E+02
    -18.075  0.2501E+02  0.8556E+02
    -18.062  0.2499E+02  0.8591E+02
    -18.048  0.2498E+02  0.8625E+02
    -18.034  0.2496E+02  0.8660E+02
    -18.020  0.2494E+02  0.8694E+02
    -18.006  0.2492E+02  0.8729E+02
    -17.992  0.2489E+02  0.8763E+02
    -17.978  0.2485E+02  0.8798E+02
    -17.965  0.2480E+02  0.8832E+02
    -17.951  0.2474E+02  0.8866E+02
    -17.937  0.2467E+02  0.8900E+02
    -17.923  0.2458E+02  0.8934E+02
    -17.909  0.2448E+02  0.8968E+02
    -17.895  0.2437E+02  0.9002E+02
    -17.882  0.2424E+02  0.9036E+02
    -17.868  0.2410E+02  0.9069E+02
    -17.854  0.2396E+02  0.9102E+02
    -17.840  0.2380E+02  0.9135E+02
    -17.826  0.2363E+02  0.9168E+02
    -17.812  0.2346E+02  0.9200E+02
    -17.798  0.2329E+02  0.9232E+02
    -17.785  0.2311E+02  0.9264E+02
    -17.771  0.2293E+02  0.9296E+02
    -17.757  0.2275E+02  0.9328E+02
    -17.743  0.2259E+02  0.9359E+02
    -17.729  0.2243E+02  0.9390E+02
    -17.715  0.2228E+02  0.9421E+02
    -17.702  0.2214E+02  0.9451E+02
    -17.688  0.2202E+02  0.9482E+02
    -17.674  0.2192E+02  0.9512E+02
    -17.660  0.2184E+02  0.9543E+02
    -17.646  0.2178E+02  0.9573E+02
    -17.632  0.2174E+02  0.9603E+02
    -17.619  0.2172E+02  0.9633E+02
    -17.605  0.2172E+02  0.9663E+02
    -17.591  0.2173E+02  0.9693E+02
    -17.577  0.2176E+02  0.9723E+02
    -17.563  0.2180E+02  0.9753E+02
    -17.549  0.2185E+02  0.9784E+02
    -17.535  0.2190E+02  0.9814E+02
    -17.522  0.2195E+02  0.9844E+02
    -17.508  0.2200E+02  0.9875E+02
    -17.494  0.2205E+02  0.9905E+02
    -17.480  0.2208E+02  0.9936E+02
    -17.466  0.2211E+02  0.9966E+02
    -17.452  0.2213E+02  0.9997E+02
    -17.439  0.2214E+02  0.1003E+03
    -17.425  0.2215E+02  0.1006E+03
    -17.411  0.2214E+02  0.1009E+03
    -17.397  0.2213E+02  0.1012E+03
    -17.383  0.2212E+02  0.1015E+03
    -17.369  0.2211E+02  0.1018E+03
    -17.355  0.2209E+02  0.1021E+03
    -17.342  0.2208E+02  0.1024E+03
    -17.328  0.2208E+02  0.1027E+03
    -17.314  0.2208E+02  0.1030E+03
    -17.300  0.2209E+02  0.1033E+03
    -17.286  0.2210E+02  0.1036E+03
    -17.272  0.2213E+02  0.1039E+03
    -17.259  0.2216E+02  0.1043E+03
    -17.245  0.2220E+02  0.1046E+03
    -17.231  0.2224E+02  0.1049E+03
    -17.217  0.2229E+02  0.1052E+03
    -17.203  0.2234E+02  0.1055E+03
    -17.189  0.2240E+02  0.1058E+03
    -17.176  0.2246E+02  0.1061E+03
    -17.162  0.2252E+02  0.1064E+03
    -17.148  0.2258E+02  0.1067E+03
    -17.134  0.2264E+02  0.1070E+03
    -17.120  0.2270E+02  0.1074E+03
    -17.106  0.2276E+02  0.1077E+03
    -17.092  0.2281E+02  0.1080E+03
    -17.079  0.2286E+02  0.1083E+03
    -17.065  0.2290E+02  0.1086E+03
    -17.051  0.2294E+02  0.1089E+03
    -17.037  0.2297E+02  0.1093E+03
    -17.023  0.2300E+02  0.1096E+03
    -17.009  0.2301E+02  0.1099E+03
    -16.996  0.2301E+02  0.1102E+03
    -16.982  0.2300E+02  0.1105E+03
    -16.968  0.2298E+02  0.1109E+03
    -16.954  0.2294E+02  0.1112E+03
    -16.940  0.2290E+02  0.1115E+03
    -16.926  0.2284E+02  0.1118E+03
    -16.913  0.2277E+02  0.1121E+03
    -16.899  0.2269E+02  0.1124E+03
    -16.885  0.2261E+02  0.1127E+03
    -16.871  0.2251E+02  0.1131E+03
    -16.857  0.2242E+02  0.1134E+03
    -16.843  0.2231E+02  0.1137E+03
    -16.829  0.2221E+02  0.1140E+03
    -16.816  0.2210E+02  0.1143E+03
    -16.802  0.2200E+02  0.1146E+03
    -16.788  0.2190E+02  0.1149E+03
    -16.774  0.2179E+02  0.1152E+03
    -16.760  0.2169E+02  0.1155E+03
    -16.746  0.2160E+02  0.1158E+03
    -16.733  0.2150E+02  0.1161E+03
    -16.719  0.2141E+02  0.1164E+03
    -16.705  0.2132E+02  0.1167E+03
    -16.691  0.2123E+02  0.1170E+03
    -16.677  0.2115E+02  0.1173E+03
    -16.663  0.2107E+02  0.1176E+03
    -16.649  0.2100E+02  0.1179E+03
    -16.636  0.2094E+02  0.1181E+03
    -16.622  0.2089E+02  0.1184E+03
    -16.608  0.2085E+02  0.1187E+03
    -16.594  0.2082E+02  0.1190E+03
    -16.580  0.2081E+02  0.1193E+03
    -16.566  0.2081E+02  0.1196E+03
    -16.553  0.2083E+02  0.1199E+03
    -16.539  0.2087E+02  0.1202E+03
    -16.525  0.2093E+02  0.1205E+03
    -16.511  0.2100E+02  0.1207E+03
    -16.497  0.2108E+02  0.1210E+03
    -16.483  0.2118E+02  0.1213E+03
    -16.470  0.2129E+02  0.1216E+03
    -16.456  0.2140E+02  0.1219E+03
    -16.442  0.2151E+02  0.1222E+03
    -16.428  0.2162E+02  0.1225E+03
    -16.414  0.2173E+02  0.1228E+03
    -16.400  0.2183E+02  0.1231E+03
    -16.386  0.2193E+02  0.1234E+03
    -16.373  0.2202E+02  0.1237E+03
    -16.359  0.2210E+02  0.1240E+03
    -16.345  0.2218E+02  0.1243E+03
    -16.331  0.2225E+02  0.1247E+03
    -16.317  0.2232E+02  0.1250E+03
    -16.303  0.2239E+02  0.1253E+03
    -16.290  0.2247E+02  0.1256E+03
    -16.276  0.2256E+02  0.1259E+03
    -16.262  0.2266E+02  0.1262E+03
    -16.248  0.2277E+02  0.1265E+03
    -16.234  0.2290E+02  0.1268E+03
    -16.220  0.2305E+02  0.1272E+03
    -16.207  0.2321E+02  0.1275E+03
    -16.193  0.2339E+02  0.1278E+03
    -16.179  0.2359E+02  0.1281E+03
    -16.165  0.2380E+02  0.1285E+03
    -16.151  0.2401E+02  0.1288E+03
    -16.137  0.2422E+02  0.1291E+03
    -16.123  0.2443E+02  0.1295E+03
    -16.110  0.2463E+02  0.1298E+03
    -16.096  0.2481E+02  0.1302E+03
    -16.082  0.2496E+02  0.1305E+03
    -16.068  0.2509E+02  0.1308E+03
    -16.054  0.2517E+02  0.1312E+03
    -16.040  0.2522E+02  0.1315E+03
    -16.027  0.2523E+02  0.1319E+03
    -16.013  0.2519E+02  0.1322E+03
    -15.999  0.2511E+02  0.1326E+03
    -15.985  0.2499E+02  0.1329E+03
    -15.971  0.2483E+02  0.1333E+03
    -15.957  0.2463E+02  0.1336E+03
    -15.943  0.2440E+02  0.1340E+03
    -15.930  0.2414E+02  0.1343E+03
    -15.916  0.2387E+02  0.1346E+03
    -15.902  0.2359E+02  0.1349E+03
    -15.888  0.2331E+02  0.1353E+03
    -15.874  0.2303E+02  0.1356E+03
    -15.860  0.2276E+02  0.1359E+03
    -15.847  0.2251E+02  0.1362E+03
    -15.833  0.2228E+02  0.1365E+03
    -15.819  0.2208E+02  0.1368E+03
    -15.805  0.2190E+02  0.1371E+03
    -15.791  0.2176E+02  0.1374E+03
    -15.777  0.2165E+02  0.1377E+03
    -15.764  0.2157E+02  0.1380E+03
    -15.750  0.2151E+02  0.1383E+03
    -15.736  0.2149E+02  0.1386E+03
    -15.722  0.2150E+02  0.1389E+03
    -15.708  0.2152E+02  0.1392E+03
    -15.694  0.2157E+02  0.1395E+03
    -15.680  0.2163E+02  0.1398E+03
    -15.667  0.2171E+02  0.1401E+03
    -15.653  0.2180E+02  0.1404E+03
    -15.639  0.2189E+02  0.1407E+03
    -15.625  0.2198E+02  0.1410E+03
    -15.611  0.2208E+02  0.1413E+03
    -15.597  0.2217E+02  0.1416E+03
    -15.584  0.2226E+02  0.1420E+03
    -15.570  0.2233E+02  0.1423E+03
    -15.556  0.2240E+02  0.1426E+03
    -15.542  0.2245E+02  0.1429E+03
    -15.528  0.2249E+02  0.1432E+03
    -15.514  0.2251E+02  0.1435E+03
    -15.501  0.2252E+02  0.1438E+03
    -15.487  0.2250E+02  0.1441E+03
    -15.473  0.2247E+02  0.1444E+03
    -15.459  0.2241E+02  0.1447E+03
    -15.445  0.2234E+02  0.1451E+03
    -15.431  0.2226E+02  0.1454E+03
    -15.417  0.2216E+02  0.1457E+03
    -15.404  0.2205E+02  0.1460E+03
    -15.390  0.2194E+02  0.1463E+03
    -15.376  0.2182E+02  0.1466E+03
    -15.362  0.2170E+02  0.1469E+03
    -15.348  0.2158E+02  0.1472E+03
    -15.334  0.2146E+02  0.1475E+03
    -15.321  0.2136E+02  0.1478E+03
    -15.307  0.2127E+02  0.1481E+03
    -15.293  0.2119E+02  0.1484E+03
    -15.279  0.2113E+02  0.1487E+03
    -15.265  0.2108E+02  0.1489E+03
    -15.251  0.2106E+02  0.1492E+03
    -15.237  0.2105E+02  0.1495E+03
    -15.224  0.2107E+02  0.1498E+03
    -15.210  0.2111E+02  0.1501E+03
    -15.196  0.2116E+02  0.1504E+03
    -15.182  0.2124E+02  0.1507E+03
    -15.168  0.2134E+02  0.1510E+03
    -15.154  0.2146E+02  0.1513E+03
    -15.141  0.2159E+02  0.1516E+03
    -15.127  0.2174E+02  0.1519E+03
    -15.113  0.2191E+02  0.1522E+03
    -15.099  0.2208E+02  0.1525E+03
    -15.085  0.2226E+02  0.1528E+03
    -15.071  0.2245E+02  0.1531E+03
    -15.058  0.2263E+02  0.1534E+03
    -15.044  0.2282E+02  0.1538E+03
    -15.030  0.2300E+02  0.1541E+03
    -15.016  0.2317E+02  0.1544E+03
    -15.002  0.2332E+02  0.1547E+03
    -14.988  0.2346E+02  0.1550E+03
    -14.974  0.2358E+02  0.1554E+03
    -14.961  0.2367E+02  0.1557E+03
    -14.947  0.2373E+02  0.1560E+03
    -14.933  0.2377E+02  0.1564E+03
    -14.919  0.2377E+02  0.1567E+03
    -14.905  0.2375E+02  0.1570E+03
    -14.891  0.2369E+02  0.1573E+03
    -14.878  0.2360E+02  0.1577E+03
    -14.864  0.2349E+02  0.1580E+03
    -14.850  0.2334E+02  0.1583E+03
    -14.836  0.2318E+02  0.1586E+03
    -14.822  0.2300E+02  0.1590E+03
    -14.808  0.2280E+02  0.1593E+03
    -14.795  0.2259E+02  0.1596E+03
    -14.781  0.2238E+02  0.1599E+03
    -14.767  0.2217E+02  0.1602E+03
    -14.753  0.2197E+02  0.1605E+03
    -14.739  0.2177E+02  0.1608E+03
    -14.725  0.2160E+02  0.1611E+03
    -14.711  0.2143E+02  0.1614E+03
    -14.698  0.2129E+02  0.1617E+03
    -14.684  0.2118E+02  0.1620E+03
    -14.670  0.2108E+02  0.1623E+03
    -14.656  0.2101E+02  0.1626E+03
    -14.642  0.2096E+02  0.1629E+03
    -14.628  0.2094E+02  0.1631E+03
    -14.615  0.2093E+02  0.1634E+03
    -14.601  0.2094E+02  0.1637E+03
    -14.587  0.2096E+02  0.1640E+03
    -14.573  0.2099E+02  0.1643E+03
    -14.559  0.2102E+02  0.1646E+03
    -14.545  0.2106E+02  0.1649E+03
    -14.531  0.2111E+02  0.1652E+03
    -14.518  0.2115E+02  0.1655E+03
    -14.504  0.2119E+02  0.1658E+03
    -14.490  0.2123E+02  0.1661E+03
    -14.476  0.2127E+02  0.1664E+03
    -14.462  0.2131E+02  0.1667E+03
    -14.448  0.2136E+02  0.1669E+03
    -14.435  0.2140E+02  0.1672E+03
    -14.421  0.2145E+02  0.1675E+03
    -14.407  0.2151E+02  0.1678E+03
    -14.393  0.2158E+02  0.1681E+03
    -14.379  0.2165E+02  0.1684E+03
    -14.365  0.2174E+02  0.1687E+03
    -14.352  0.2184E+02  0.1690E+03
    -14.338  0.2195E+02  0.1693E+03
    -14.324  0.2207E+02  0.1696E+03
    -14.310  0.2220E+02  0.1700E+03
    -14.296  0.2234E+02  0.1703E+03
    -14.282  0.2248E+02  0.1706E+03
    -14.268  0.2263E+02  0.1709E+03
    -14.255  0.2278E+02  0.1712E+03
    -14.241  0.2292E+02  0.1715E+03
    -14.227  0.2307E+02  0.1718E+03
    -14.213  0.2320E+02  0.1722E+03
    -14.199  0.2333E+02  0.1725E+03
    -14.185  0.2345E+02  0.1728E+03
    -14.172  0.2357E+02  0.1731E+03
    -14.158  0.2367E+02  0.1735E+03
    -14.144  0.2377E+02  0.1738E+03
    -14.130  0.2386E+02  0.1741E+03
    -14.116  0.2394E+02  0.1745E+03
    -14.102  0.2402E+02  0.1748E+03
    -14.089  0.2409E+02  0.1751E+03
    -14.075  0.2416E+02  0.1755E+03
    -14.061  0.2423E+02  0.1758E+03
    -14.047  0.2430E+02  0.1761E+03
    -14.033  0.2438E+02  0.1765E+03
    -14.019  0.2445E+02  0.1768E+03
    -14.005  0.2452E+02  0.1771E+03
    -13.992  0.2460E+02  0.1775E+03
    -13.978  0.2467E+02  0.1778E+03
    -13.964  0.2474E+02  0.1782E+03
    -13.950  0.2480E+02  0.1785E+03
    -13.936  0.2486E+02  0.1789E+03
    -13.922  0.2491E+02  0.1792E+03
    -13.909  0.2495E+02  0.1795E+03
    -13.895  0.2497E+02  0.1799E+03
    -13.881  0.2498E+02  0.1802E+03
    -13.867  0.2497E+02  0.1806E+03
    -13.853  0.2495E+02  0.1809E+03
    -13.839  0.2491E+02  0.1813E+03
    -13.825  0.2485E+02  0.1816E+03
    -13.812  0.2478E+02  0.1820E+03
    -13.798  0.2469E+02  0.1823E+03
    -13.784  0.2460E+02  0.1826E+03
    -13.770  0.2450E+02  0.1830E+03
    -13.756  0.2440E+02  0.1833E+03
    -13.742  0.2430E+02  0.1837E+03
    -13.729  0.2420E+02  0.1840E+03
    -13.715  0.2412E+02  0.1843E+03
    -13.701  0.2405E+02  0.1847E+03
    -13.687  0.2400E+02  0.1850E+03
    -13.673  0.2397E+02  0.1853E+03
    -13.659  0.2396E+02  0.1857E+03
    -13.646  0.2398E+02  0.1860E+03
    -13.632  0.2402E+02  0.1863E+03
    -13.618  0.2407E+02  0.1867E+03
    -13.604  0.2415E+02  0.1870E+03
    -13.590  0.2425E+02  0.1873E+03
    -13.576  0.2436E+02  0.1877E+03
    -13.562  0.2448E+02  0.1880E+03
    -13.549  0.2461E+02  0.1883E+03
    -13.535  0.2474E+02  0.1887E+03
    -13.521  0.2487E+02  0.1890E+03
    -13.507  0.2499E+02  0.1894E+03
    -13.493  0.2510E+02  0.1897E+03
    -13.479  0.2520E+02  0.1901E+03
    -13.466  0.2529E+02  0.1904E+03
    -13.452  0.2536E+02  0.1908E+03
    -13.438  0.2541E+02  0.1911E+03
    -13.424  0.2545E+02  0.1915E+03
    -13.410  0.2547E+02  0.1918E+03
    -13.396  0.2548E+02  0.1922E+03
    -13.383  0.2547E+02  0.1925E+03
    -13.369  0.2546E+02  0.1929E+03
    -13.355  0.2543E+02  0.1932E+03
    -13.341  0.2540E+02  0.1936E+03
    -13.327  0.2537E+02  0.1939E+03
    -13.313  0.2533E+02  0.1943E+03
    -13.299  0.2528E+02  0.1946E+03
    -13.286  0.2523E+02  0.1950E+03
    -13.272  0.2518E+02  0.1953E+03
    -13.258  0.2511E+02  0.1957E+03
    -13.244  0.2504E+02  0.1960E+03
    -13.230  0.2495E+02  0.1964E+03
    -13.216  0.2486E+02  0.1967E+03
    -13.203  0.2474E+02  0.1971E+03
    -13.189  0.2461E+02  0.1974E+03
    -13.175  0.2447E+02  0.1977E+03
    -13.161  0.2430E+02  0.1981E+03
    -13.147  0.2412E+02  0.1984E+03
    -13.133  0.2393E+02  0.1987E+03
    -13.119  0.2373E+02  0.1991E+03
    -13.106  0.2353E+02  0.1994E+03
    -13.092  0.2332E+02  0.1997E+03
    -13.078  0.2313E+02  0.2000E+03
    -13.064  0.2294E+02  0.2004E+03
    -13.050  0.2278E+02  0.2007E+03
    -13.036  0.2264E+02  0.2010E+03
    -13.023  0.2253E+02  0.2013E+03
    -13.009  0.2245E+02  0.2016E+03
    -12.995  0.2242E+02  0.2019E+03
    -12.981  0.2243E+02  0.2022E+03
    -12.967  0.2248E+02  0.2025E+03
    -12.953  0.2258E+02  0.2029E+03
    -12.940  0.2272E+02  0.2032E+03
    -12.926  0.2290E+02  0.2035E+03
    -12.912  0.2311E+02  0.2038E+03
    -12.898  0.2336E+02  0.2041E+03
    -12.884  0.2363E+02  0.2045E+03
    -12.870  0.2393E+02  0.2048E+03
    -12.856  0.2424E+02  0.2051E+03
    -12.843  0.2456E+02  0.2055E+03
    -12.829  0.2488E+02  0.2058E+03
    -12.815  0.2520E+02  0.2062E+03
    -12.801  0.2551E+02  0.2065E+03
    -12.787  0.2581E+02  0.2069E+03
    -12.773  0.2610E+02  0.2072E+03
    -12.760  0.2637E+02  0.2076E+03
    -12.746  0.2661E+02  0.2080E+03