 192 192   0   0
  0.2619380E+02  0.2556000E-08  0.1967610E-08  0.1000000E-08  0.5000000E-15
  1.000000000000000E-004
  CAR 
 unknown system                          
      5.86002132    -23.90490239 2000     -1.55068037      1.00000000
    -23.905  0.0000E+00  0.0000E+00
    -23.890  0.0000E+00  0.0000E+00
    -23.875  0.0000E+00  0.0000E+00
    -23.860  0.0000E+00  0.0000E+00
    -23.845  0.0000E+00  0.0000E+00
    -23.830  0.0000E+00  0.0000E+00
    -23.816  0.0000E+00  0.0000E+00
    -23.801  0.0000E+00  0.0000E+00
    -23.786  0.0000E+00  0.0000E+00
    -23.771  0.0000E+00  0.0000E+00
    -23.756  0.0000E+00  0.0000E+00
    -23.741  0.0000E+00  0.0000E+00
    -23.726  0.0000E+00  0.0000E+00
    -23.711  0.0000E+00  0.0000E+00
    -23.696  0.0000E+00  0.0000E+00
    -23.682  0.0000E+00  0.0000E+00
    -23.667  0.0000E+00  0.0000E+00
    -23.652  0.0000E+00  0.0000E+00
    -23.637  0.0000E+00  0.0000E+00
    -23.622  0.0000E+00  0.0000E+00
    -23.607  0.0000E+00  0.0000E+00
    -23.592  0.0000E+00  0.0000E+00
    -23.577  0.0000E+00  0.0000E+00
    -23.562  0.0000E+00  0.0000E+00
    -23.548  0.0000E+00  0.0000E+00
    -23.533  0.0000E+00  0.0000E+00
    -23.518  0.0000E+00  0.0000E+00
    -23.503  0.0000E+00  0.0000E+00
    -23.488  0.0000E+00  0.0000E+00
    -23.473  0.0000E+00  0.0000E+00
    -23.458  0.0000E+00  0.0000E+00
    -23.443  0.0000E+00  0.0000E+00
    -23.428  0.0000E+00  0.0000E+00
    -23.414  0.0000E+00  0.0000E+00
    -23.399  0.0000E+00  0.0000E+00
    -23.384  0.0000E+00  0.0000E+00
    -23.369  0.0000E+00  0.0000E+00
    -23.354  0.0000E+00  0.0000E+00
    -23.339  0.0000E+00  0.0000E+00
    -23.324  0.0000E+00  0.0000E+00
    -23.309  0.0000E+00  0.0000E+00
    -23.294  0.0000E+00  0.0000E+00
    -23.280  0.0000E+00  0.0000E+00
    -23.265  0.0000E+00  0.0000E+00
    -23.250  0.0000E+00  0.0000E+00
    -23.235  0.0000E+00  0.0000E+00
    -23.220  0.0000E+00  0.0000E+00
    -23.205  0.0000E+00  0.0000E+00
    -23.190  0.0000E+00  0.0000E+00
    -23.175  0.0000E+00  0.0000E+00
    -23.160  0.0000E+00  0.0000E+00
    -23.146  0.0000E+00  0.0000E+00
    -23.131  0.0000E+00  0.0000E+00
    -23.116  0.0000E+00  0.0000E+00
    -23.101  0.0000E+00  0.0000E+00
    -23.086  0.7456E-14  0.1110E-15
    -23.071  0.0000E+00  0.1110E-15
    -23.056  0.1740E-13  0.3701E-15
    -23.041  0.3480E-13  0.8882E-15
    -23.026  0.8450E-13  0.2146E-14
    -23.012  0.1889E-12  0.4959E-14
    -22.997  0.4300E-12  0.1136E-13
    -22.982  0.9677E-12  0.2577E-13
    -22.967  0.2159E-11  0.5792E-13
    -22.952  0.4755E-11  0.1287E-12
    -22.937  0.1037E-10  0.2832E-12
    -22.922  0.2235E-10  0.6160E-12
    -22.907  0.4766E-10  0.1326E-11
    -22.892  0.1005E-09  0.2822E-11
    -22.877  0.2095E-09  0.5942E-11
    -22.863  0.4321E-09  0.1238E-10
    -22.848  0.8814E-09  0.2550E-10
    -22.833  0.1778E-08  0.5197E-10
    -22.818  0.3547E-08  0.1048E-09
    -22.803  0.6997E-08  0.2090E-09
    -22.788  0.1365E-07  0.4123E-09
    -22.773  0.2635E-07  0.8046E-09
    -22.758  0.5028E-07  0.1553E-08
    -22.743  0.9490E-07  0.2966E-08
    -22.729  0.1772E-06  0.5604E-08
    -22.714  0.3270E-06  0.1047E-07
    -22.699  0.5971E-06  0.1936E-07
    -22.684  0.1078E-05  0.3542E-07
    -22.669  0.1925E-05  0.6409E-07
    -22.654  0.3400E-05  0.1147E-06
    -22.639  0.5939E-05  0.2031E-06
    -22.624  0.1026E-04  0.3559E-06
    -22.609  0.1753E-04  0.6169E-06
    -22.595  0.2961E-04  0.1058E-05
    -22.580  0.4948E-04  0.1795E-05
    -22.565  0.8177E-04  0.3012E-05
    -22.550  0.1336E-03  0.5002E-05
    -22.535  0.2160E-03  0.8218E-05
    -22.520  0.3453E-03  0.1336E-04
    -22.505  0.5459E-03  0.2149E-04
    -22.490  0.8535E-03  0.3420E-04
    -22.475  0.1320E-02  0.5385E-04
    -22.461  0.2018E-02  0.8390E-04
    -22.446  0.3053E-02  0.1294E-03
    -22.431  0.4566E-02  0.1973E-03
    -22.416  0.6755E-02  0.2979E-03
    -22.401  0.9883E-02  0.4451E-03
    -22.386  0.1430E-01  0.6580E-03
    -22.371  0.2046E-01  0.9627E-03
    -22.356  0.2896E-01  0.1394E-02
    -22.341  0.4054E-01  0.1998E-02
    -22.327  0.5612E-01  0.2833E-02
    -22.312  0.7684E-01  0.3977E-02
    -22.297  0.1040E+00  0.5527E-02
    -22.282  0.1393E+00  0.7602E-02
    -22.267  0.1846E+00  0.1035E-01
    -22.252  0.2418E+00  0.1395E-01
    -22.237  0.3133E+00  0.1862E-01
    -22.222  0.4015E+00  0.2459E-01
    -22.207  0.5090E+00  0.3217E-01
    -22.193  0.6381E+00  0.4167E-01
    -22.178  0.7914E+00  0.5346E-01
    -22.163  0.9709E+00  0.6792E-01
    -22.148  0.1178E+01  0.8546E-01
    -22.133  0.1415E+01  0.1065E+00
    -22.118  0.1680E+01  0.1315E+00
    -22.103  0.1975E+01  0.1610E+00
    -22.088  0.2297E+01  0.1952E+00
    -22.073  0.2644E+01  0.2345E+00
    -22.059  0.3013E+01  0.2794E+00
    -22.044  0.3399E+01  0.3300E+00
    -22.029  0.3797E+01  0.3865E+00
    -22.014  0.4201E+01  0.4491E+00
    -21.999  0.4607E+01  0.5177E+00
    -21.984  0.5008E+01  0.5922E+00
    -21.969  0.5399E+01  0.6726E+00
    -21.954  0.5777E+01  0.7587E+00
    -21.939  0.6139E+01  0.8501E+00
    -21.925  0.6483E+01  0.9466E+00
    -21.910  0.6811E+01  0.1048E+01
    -21.895  0.7125E+01  0.1154E+01
    -21.880  0.7429E+01  0.1265E+01
    -21.865  0.7729E+01  0.1380E+01
    -21.850  0.8033E+01  0.1499E+01
    -21.835  0.8349E+01  0.1624E+01
    -21.820  0.8684E+01  0.1753E+01
    -21.805  0.9047E+01  0.1888E+01
    -21.791  0.9445E+01  0.2028E+01
    -21.776  0.9882E+01  0.2176E+01
    -21.761  0.1036E+02  0.2330E+01
    -21.746  0.1089E+02  0.2492E+01
    -21.731  0.1146E+02  0.2663E+01
    -21.716  0.1207E+02  0.2842E+01
    -21.701  0.1272E+02  0.3032E+01
    -21.686  0.1339E+02  0.3231E+01
    -21.671  0.1408E+02  0.3441E+01
    -21.657  0.1478E+02  0.3661E+01
    -21.642  0.1548E+02  0.3892E+01
    -21.627  0.1617E+02  0.4132E+01
    -21.612  0.1684E+02  0.4383E+01
    -21.597  0.1748E+02  0.4643E+01
    -21.582  0.1808E+02  0.4913E+01
    -21.567  0.1865E+02  0.5190E+01
    -21.552  0.1917E+02  0.5476E+01
    -21.537  0.1965E+02  0.5768E+01
    -21.523  0.2008E+02  0.6067E+01
    -21.508  0.2047E+02  0.6372E+01
    -21.493  0.2081E+02  0.6682E+01
    -21.478  0.2111E+02  0.6996E+01
    -21.463  0.2136E+02  0.7314E+01
    -21.448  0.2157E+02  0.7636E+01
    -21.433  0.2174E+02  0.7959E+01
    -21.418  0.2187E+02  0.8285E+01
    -21.403  0.2196E+02  0.8612E+01
    -21.389  0.2200E+02  0.8939E+01
    -21.374  0.2199E+02  0.9267E+01
    -21.359  0.2194E+02  0.9594E+01
    -21.344  0.2184E+02  0.9919E+01
    -21.329  0.2170E+02  0.1024E+02
    -21.314  0.2151E+02  0.1056E+02
    -21.299  0.2128E+02  0.1088E+02
    -21.284  0.2101E+02  0.1119E+02
    -21.269  0.2070E+02  0.1150E+02
    -21.254  0.2036E+02  0.1180E+02
    -21.240  0.1999E+02  0.1210E+02
    -21.225  0.1960E+02  0.1239E+02
    -21.210  0.1920E+02  0.1268E+02
    -21.195  0.1880E+02  0.1296E+02
    -21.180  0.1840E+02  0.1323E+02
    -21.165  0.1801E+02  0.1350E+02
    -21.150  0.1763E+02  0.1376E+02
    -21.135  0.1729E+02  0.1402E+02
    -21.120  0.1697E+02  0.1427E+02
    -21.106  0.1669E+02  0.1452E+02
    -21.091  0.1644E+02  0.1477E+02
    -21.076  0.1625E+02  0.1501E+02
    -21.061  0.1610E+02  0.1525E+02
    -21.046  0.1600E+02  0.1549E+02
    -21.031  0.1596E+02  0.1572E+02
    -21.016  0.1597E+02  0.1596E+02
    -21.001  0.1604E+02  0.1620E+02
    -20.986  0.1616E+02  0.1644E+02
    -20.972  0.1634E+02  0.1668E+02
    -20.957  0.1657E+02  0.1693E+02
    -20.942  0.1686E+02  0.1718E+02
    -20.927  0.1720E+02  0.1744E+02
    -20.912  0.1758E+02  0.1770E+02
    -20.897  0.1800E+02  0.1797E+02
    -20.882  0.1846E+02  0.1824E+02
    -20.867  0.1894E+02  0.1852E+02
    -20.852  0.1944E+02  0.1881E+02
    -20.838  0.1996E+02  0.1911E+02
    -20.823  0.2048E+02  0.1942E+02
    -20.808  0.2099E+02  0.1973E+02
    -20.793  0.2148E+02  0.2005E+02
    -20.778  0.2195E+02  0.2038E+02
    -20.763  0.2238E+02  0.2071E+02
    -20.748  0.2278E+02  0.2105E+02
    -20.733  0.2314E+02  0.2139E+02
    -20.718  0.2345E+02  0.2174E+02
    -20.704  0.2372E+02  0.2209E+02
    -20.689  0.2395E+02  0.2245E+02
    -20.674  0.2414E+02  0.2281E+02
    -20.659  0.2429E+02  0.2317E+02
    -20.644  0.2442E+02  0.2354E+02
    -20.629  0.2454E+02  0.2390E+02
    -20.614  0.2465E+02  0.2427E+02
    -20.599  0.2476E+02  0.2464E+02
    -20.584  0.2489E+02  0.2501E+02
    -20.570  0.2505E+02  0.2538E+02
    -20.555  0.2524E+02  0.2576E+02
    -20.540  0.2547E+02  0.2614E+02
    -20.525  0.2574E+02  0.2652E+02
    -20.510  0.2606E+02  0.2691E+02
    -20.495  0.2643E+02  0.2730E+02
    -20.480  0.2683E+02  0.2770E+02
    -20.465  0.2726E+02  0.2811E+02
    -20.450  0.2771E+02  0.2852E+02
    -20.436  0.2817E+02  0.2894E+02
    -20.421  0.2863E+02  0.2936E+02
    -20.406  0.2907E+02  0.2980E+02
    -20.391  0.2947E+02  0.3024E+02
    -20.376  0.2982E+02  0.3068E+02
    -20.361  0.3010E+02  0.3113E+02
    -20.346  0.3030E+02  0.3158E+02
    -20.331  0.3042E+02  0.3203E+02
    -20.316  0.3044E+02  0.3249E+02
    -20.302  0.3037E+02  0.3294E+02
    -20.287  0.3020E+02  0.3339E+02
    -20.272  0.2994E+02  0.3383E+02
    -20.257  0.2959E+02  0.3427E+02
    -20.242  0.2918E+02  0.3471E+02
    -20.227  0.2870E+02  0.3514E+02
    -20.212  0.2819E+02  0.3556E+02
    -20.197  0.2764E+02  0.3597E+02
    -20.182  0.2709E+02  0.3637E+02
    -20.168  0.2655E+02  0.3677E+02
    -20.153  0.2603E+02  0.3715E+02
    -20.138  0.2556E+02  0.3753E+02
    -20.123  0.2513E+02  0.3791E+02
    -20.108  0.2476E+02  0.3828E+02
    -20.093  0.2446E+02  0.3864E+02
    -20.078  0.2422E+02  0.3900E+02
    -20.063  0.2406E+02  0.3936E+02
    -20.048  0.2397E+02  0.3972E+02
    -20.034  0.2394E+02  0.4007E+02
    -20.019  0.2398E+02  0.4043E+02
    -20.004  0.2407E+02  0.4079E+02
    -19.989  0.2421E+02  0.4115E+02
    -19.974  0.2438E+02  0.4151E+02
    -19.959  0.2458E+02  0.4188E+02
    -19.944  0.2479E+02  0.4225E+02
    -19.929  0.2501E+02  0.4262E+02
    -19.914  0.2524E+02  0.4300E+02
    -19.900  0.2545E+02  0.4337E+02
    -19.885  0.2564E+02  0.4376E+02
    -19.870  0.2581E+02  0.4414E+02
    -19.855  0.2596E+02  0.4453E+02
    -19.840  0.2608E+02  0.4492E+02
    -19.825  0.2618E+02  0.4531E+02
    -19.810  0.2625E+02  0.4570E+02
    -19.795  0.2630E+02  0.4609E+02
    -19.780  0.2634E+02  0.4648E+02
    -19.766  0.2636E+02  0.4687E+02
    -19.751  0.2639E+02  0.4727E+02
    -19.736  0.2642E+02  0.4766E+02
    -19.721  0.2646E+02  0.4805E+02
    -19.706  0.2651E+02  0.4845E+02
    -19.691  0.2659E+02  0.4884E+02
    -19.676  0.2668E+02  0.4924E+02
    -19.661  0.2680E+02  0.4964E+02
    -19.646  0.2694E+02  0.5004E+02
    -19.631  0.2710E+02  0.5044E+02
    -19.617  0.2726E+02  0.5085E+02
    -19.602  0.2744E+02  0.5126E+02
    -19.587  0.2761E+02  0.5167E+02
    -19.572  0.2777E+02  0.5208E+02
    -19.557  0.2792E+02  0.5250E+02
    -19.542  0.2804E+02  0.5292E+02
    -19.527  0.2814E+02  0.5334E+02
    -19.512  0.2820E+02  0.5376E+02
    -19.497  0.2823E+02  0.5418E+02
    -19.483  0.2822E+02  0.5460E+02
    -19.468  0.2818E+02  0.5502E+02
    -19.453  0.2811E+02  0.5543E+02
    -19.438  0.2800E+02  0.5585E+02
    -19.423  0.2787E+02  0.5627E+02
    -19.408  0.2772E+02  0.5668E+02
    -19.393  0.2756E+02  0.5709E+02
    -19.378  0.2738E+02  0.5750E+02
    -19.363  0.2720E+02  0.5790E+02
    -19.349  0.2702E+02  0.5830E+02
    -19.334  0.2684E+02  0.5870E+02
    -19.319  0.2668E+02  0.5910E+02
    -19.304  0.2652E+02  0.5950E+02
    -19.289  0.2638E+02  0.5989E+02
    -19.274  0.2626E+02  0.6028E+02
    -19.259  0.2615E+02  0.6067E+02
    -19.244  0.2605E+02  0.6106E+02
    -19.229  0.2598E+02  0.6144E+02
    -19.215  0.2592E+02  0.6183E+02
    -19.200  0.2587E+02  0.6222E+02
    -19.185  0.2584E+02  0.6260E+02
    -19.170  0.2582E+02  0.6298E+02
    -19.155  0.2581E+02  0.6337E+02
    -19.140  0.2581E+02  0.6375E+02
    -19.125  0.2583E+02  0.6414E+02
    -19.110  0.2586E+02  0.6452E+02
    -19.095  0.2589E+02  0.6491E+02
    -19.081  0.2594E+02  0.6529E+02
    -19.066  0.2600E+02  0.6568E+02
    -19.051  0.2607E+02  0.6607E+02
    -19.036  0.2615E+02  0.6646E+02
    -19.021  0.2623E+02  0.6685E+02
    -19.006  0.2633E+02  0.6724E+02
    -18.991  0.2644E+02  0.6764E+02
    -18.976  0.2655E+02  0.6803E+02
    -18.961  0.2667E+02  0.6843E+02
    -18.947  0.2679E+02  0.6883E+02
    -18.932  0.2691E+02  0.6923E+02
    -18.917  0.2703E+02  0.6963E+02
    -18.902  0.2714E+02  0.7003E+02
    -18.887  0.2725E+02  0.7044E+02
    -18.872  0.2735E+02  0.7085E+02
    -18.857  0.2744E+02  0.7126E+02
    -18.842  0.2753E+02  0.7167E+02
    -18.827  0.2760E+02  0.7208E+02
    -18.813  0.2766E+02  0.7249E+02
    -18.798  0.2772E+02  0.7290E+02
    -18.783  0.2777E+02  0.7331E+02
    -18.768  0.2782E+02  0.7373E+02
    -18.753  0.2786E+02  0.7414E+02
    -18.738  0.2790E+02  0.7456E+02
    -18.723  0.2795E+02  0.7498E+02
    -18.708  0.2801E+02  0.7539E+02
    -18.693  0.2807E+02  0.7581E+02
    -18.679  0.2813E+02  0.7623E+02
    -18.664  0.2821E+02  0.7665E+02
    -18.649  0.2829E+02  0.7707E+02
    -18.634  0.2839E+02  0.7749E+02
    -18.619  0.2848E+02  0.7792E+02
    -18.604  0.2858E+02  0.7834E+02
    -18.589  0.2868E+02  0.7877E+02
    -18.574  0.2878E+02  0.7920E+02
    -18.559  0.2888E+02  0.7963E+02
    -18.545  0.2898E+02  0.8006E+02
    -18.530  0.2907E+02  0.8049E+02
    -18.515  0.2915E+02  0.8093E+02
    -18.500  0.2923E+02  0.8136E+02
    -18.485  0.2931E+02  0.8180E+02
    -18.470  0.2937E+02  0.8224E+02
    -18.455  0.2944E+02  0.8267E+02
    -18.440  0.2949E+02  0.8311E+02
    -18.425  0.2955E+02  0.8355E+02
    -18.411  0.2960E+02  0.8399E+02
    -18.396  0.2965E+02  0.8444E+02
    -18.381  0.2969E+02  0.8488E+02
    -18.366  0.2973E+02  0.8532E+02
    -18.351  0.2976E+02  0.8576E+02
    -18.336  0.2977E+02  0.8621E+02
    -18.321  0.2977E+02  0.8665E+02
    -18.306  0.2975E+02  0.8709E+02
    -18.291  0.2971E+02  0.8754E+02
    -18.277  0.2964E+02  0.8798E+02
    -18.262  0.2954E+02  0.8842E+02
    -18.247  0.2940E+02  0.8885E+02
    -18.232  0.2924E+02  0.8929E+02
    -18.217  0.2903E+02  0.8972E+02
    -18.202  0.2879E+02  0.9015E+02
    -18.187  0.2852E+02  0.9058E+02
    -18.172  0.2822E+02  0.9100E+02
    -18.157  0.2789E+02  0.9141E+02
    -18.143  0.2753E+02  0.9182E+02
    -18.128  0.2716E+02  0.9222E+02
    -18.113  0.2678E+02  0.9262E+02
    -18.098  0.2640E+02  0.9302E+02
    -18.083  0.2602E+02  0.9340E+02
    -18.068  0.2566E+02  0.9379E+02
    -18.053  0.2531E+02  0.9416E+02
    -18.038  0.2500E+02  0.9454E+02
    -18.023  0.2472E+02  0.9490E+02
    -18.008  0.2448E+02  0.9527E+02
    -17.994  0.2430E+02  0.9563E+02
    -17.979  0.2417E+02  0.9599E+02
    -17.964  0.2410E+02  0.9635E+02
    -17.949  0.2410E+02  0.9671E+02
    -17.934  0.2416E+02  0.9707E+02
    -17.919  0.2429E+02  0.9743E+02
    -17.904  0.2447E+02  0.9779E+02
    -17.889  0.2472E+02  0.9816E+02
    -17.874  0.2503E+02  0.9853E+02
    -17.860  0.2538E+02  0.9891E+02
    -17.845  0.2578E+02  0.9930E+02
    -17.830  0.2620E+02  0.9969E+02
    -17.815  0.2666E+02  0.1001E+03
    -17.800  0.2712E+02  0.1005E+03
    -17.785  0.2759E+02  0.1009E+03
    -17.770  0.2806E+02  0.1013E+03
    -17.755  0.2851E+02  0.1017E+03
    -17.740  0.2894E+02  0.1022E+03
    -17.726  0.2935E+02  0.1026E+03
    -17.711  0.2972E+02  0.1030E+03
    -17.696  0.3007E+02  0.1035E+03
    -17.681  0.3037E+02  0.1039E+03
    -17.666  0.3065E+02  0.1044E+03
    -17.651  0.3088E+02  0.1049E+03
    -17.636  0.3108E+02  0.1053E+03
    -17.621  0.3125E+02  0.1058E+03
    -17.606  0.3139E+02  0.1063E+03
    -17.592  0.3151E+02  0.1067E+03
    -17.577  0.3160E+02  0.1072E+03
    -17.562  0.3166E+02  0.1077E+03
    -17.547  0.3171E+02  0.1081E+03
    -17.532  0.3175E+02  0.1086E+03
    -17.517  0.3177E+02  0.1091E+03
    -17.502  0.3178E+02  0.1096E+03
    -17.487  0.3177E+02  0.1100E+03
    -17.472  0.3176E+02  0.1105E+03
    -17.458  0.3174E+02  0.1110E+03
    -17.443  0.3171E+02  0.1115E+03
    -17.428  0.3167E+02  0.1119E+03
    -17.413  0.3163E+02  0.1124E+03
    -17.398  0.3158E+02  0.1129E+03
    -17.383  0.3153E+02  0.1133E+03
    -17.368  0.3147E+02  0.1138E+03
    -17.353  0.3141E+02  0.1143E+03
    -17.338  0.3134E+02  0.1147E+03
    -17.324  0.3126E+02  0.1152E+03
    -17.309  0.3119E+02  0.1157E+03
    -17.294  0.3110E+02  0.1161E+03
    -17.279  0.3101E+02  0.1166E+03
    -17.264  0.3091E+02  0.1171E+03
    -17.249  0.3080E+02  0.1175E+03
    -17.234  0.3069E+02  0.1180E+03
    -17.219  0.3056E+02  0.1184E+03
    -17.204  0.3043E+02  0.1189E+03
    -17.190  0.3030E+02  0.1193E+03
    -17.175  0.3016E+02  0.1198E+03
    -17.160  0.3001E+02  0.1202E+03
    -17.145  0.2987E+02  0.1207E+03
    -17.130  0.2973E+02  0.1211E+03
    -17.115  0.2959E+02  0.1216E+03
    -17.100  0.2947E+02  0.1220E+03
    -17.085  0.2935E+02  0.1224E+03
    -17.070  0.2925E+02  0.1229E+03
    -17.056  0.2917E+02  0.1233E+03
    -17.041  0.2911E+02  0.1237E+03
    -17.026  0.2908E+02  0.1242E+03
    -17.011  0.2906E+02  0.1246E+03
    -16.996  0.2907E+02  0.1250E+03
    -16.981  0.2911E+02  0.1255E+03
    -16.966  0.2918E+02  0.1259E+03
    -16.951  0.2926E+02  0.1263E+03
    -16.936  0.2938E+02  0.1268E+03
    -16.922  0.2951E+02  0.1272E+03
    -16.907  0.2966E+02  0.1277E+03
    -16.892  0.2983E+02  0.1281E+03
    -16.877  0.3002E+02  0.1285E+03
    -16.862  0.3021E+02  0.1290E+03
    -16.847  0.3042E+02  0.1294E+03
    -16.832  0.3062E+02  0.1299E+03
    -16.817  0.3083E+02  0.1304E+03
    -16.802  0.3104E+02  0.1308E+03
    -16.788  0.3125E+02  0.1313E+03
    -16.773  0.3144E+02  0.1318E+03
    -16.758  0.3162E+02  0.1322E+03
    -16.743  0.3179E+02  0.1327E+03
    -16.728  0.3195E+02  0.1332E+03
    -16.713  0.3208E+02  0.1337E+03
    -16.698  0.3219E+02  0.1341E+03
    -16.683  0.3228E+02  0.1346E+03
    -16.668  0.3234E+02  0.1351E+03
    -16.654  0.3238E+02  0.1356E+03
    -16.639  0.3238E+02  0.1361E+03
    -16.624  0.3236E+02  0.1365E+03
    -16.609  0.3230E+02  0.1370E+03
    -16.594  0.3221E+02  0.1375E+03
    -16.579  0.3209E+02  0.1380E+03
    -16.564  0.3193E+02  0.1385E+03
    -16.549  0.3175E+02  0.1389E+03
    -16.534  0.3154E+02  0.1394E+03
    -16.520  0.3130E+02  0.1399E+03
    -16.505  0.3104E+02  0.1403E+03
    -16.490  0.3075E+02  0.1408E+03
    -16.475  0.3045E+02  0.1412E+03
    -16.460  0.3014E+02  0.1417E+03
    -16.445  0.2981E+02  0.1421E+03
    -16.430  0.2948E+02  0.1426E+03
    -16.415  0.2915E+02  0.1430E+03
    -16.400  0.2883E+02  0.1434E+03
    -16.385  0.2852E+02  0.1439E+03
    -16.371  0.2822E+02  0.1443E+03
    -16.356  0.2794E+02  0.1447E+03
    -16.341  0.2769E+02  0.1451E+03
    -16.326  0.2746E+02  0.1455E+03
    -16.311  0.2727E+02  0.1459E+03
    -16.296  0.2711E+02  0.1463E+03
    -16.281  0.2698E+02  0.1467E+03
    -16.266  0.2689E+02  0.1471E+03
    -16.251  0.2683E+02  0.1475E+03
    -16.237  0.2681E+02  0.1479E+03
    -16.222  0.2682E+02  0.1483E+03
    -16.207  0.2686E+02  0.1487E+03
    -16.192  0.2693E+02  0.1491E+03
    -16.177  0.2702E+02  0.1495E+03
    -16.162  0.2714E+02  0.1499E+03
    -16.147  0.2727E+02  0.1503E+03
    -16.132  0.2741E+02  0.1507E+03
    -16.117  0.2755E+02  0.1512E+03
    -16.103  0.2770E+02  0.1516E+03
    -16.088  0.2784E+02  0.1520E+03
    -16.073  0.2798E+02  0.1524E+03
    -16.058  0.2811E+02  0.1528E+03
    -16.043  0.2823E+02  0.1532E+03
    -16.028  0.2833E+02  0.1537E+03
    -16.013  0.2841E+02  0.1541E+03
    -15.998  0.2848E+02  0.1545E+03
    -15.983  0.2854E+02  0.1549E+03
    -15.969  0.2858E+02  0.1554E+03
    -15.954  0.2861E+02  0.1558E+03
    -15.939  0.2863E+02  0.1562E+03
    -15.924  0.2864E+02  0.1566E+03
    -15.909  0.2864E+02  0.1571E+03
    -15.894  0.2864E+02  0.1575E+03
    -15.879  0.2863E+02  0.1579E+03
    -15.864  0.2863E+02  0.1583E+03
    -15.849  0.2862E+02  0.1588E+03
    -15.835  0.2861E+02  0.1592E+03
    -15.820  0.2860E+02  0.1596E+03
    -15.805  0.2859E+02  0.1600E+03
    -15.790  0.2858E+02  0.1605E+03
    -15.775  0.2857E+02  0.1609E+03
    -15.760  0.2856E+02  0.1613E+03
    -15.745  0.2855E+02  0.1617E+03
    -15.730  0.2855E+02  0.1622E+03
    -15.715  0.2854E+02  0.1626E+03
    -15.701  0.2855E+02  0.1630E+03
    -15.686  0.2856E+02  0.1634E+03
    -15.671  0.2858E+02  0.1639E+03
    -15.656  0.2861E+02  0.1643E+03
    -15.641  0.2865E+02  0.1647E+03
    -15.626  0.2870E+02  0.1652E+03
    -15.611  0.2877E+02  0.1656E+03
    -15.596  0.2884E+02  0.1660E+03
    -15.581  0.2893E+02  0.1664E+03
    -15.567  0.2902E+02  0.1669E+03
    -15.552  0.2912E+02  0.1673E+03
    -15.537  0.2923E+02  0.1677E+03
    -15.522  0.2933E+02  0.1682E+03
    -15.507  0.2942E+02  0.1686E+03
    -15.492  0.2951E+02  0.1691E+03
    -15.477  0.2958E+02  0.1695E+03
    -15.462  0.2963E+02  0.1699E+03
    -15.447  0.2965E+02  0.1704E+03
    -15.433  0.2965E+02  0.1708E+03
    -15.418  0.2963E+02  0.1713E+03
    -15.403  0.2957E+02  0.1717E+03
    -15.388  0.2948E+02  0.1721E+03
    -15.373  0.2936E+02  0.1726E+03
    -15.358  0.2922E+02  0.1730E+03
    -15.343  0.2904E+02  0.1734E+03
    -15.328  0.2885E+02  0.1739E+03
    -15.313  0.2864E+02  0.1743E+03
    -15.299  0.2842E+02  0.1747E+03
    -15.284  0.2819E+02  0.1751E+03
    -15.269  0.2797E+02  0.1756E+03
    -15.254  0.2775E+02  0.1760E+03
    -15.239  0.2755E+02  0.1764E+03
    -15.224  0.2736E+02  0.1768E+03
    -15.209  0.2720E+02  0.1772E+03
    -15.194  0.2706E+02  0.1776E+03
    -15.179  0.2695E+02  0.1780E+03
    -15.165  0.2687E+02  0.1784E+03
    -15.150  0.2683E+02  0.1788E+03
    -15.135  0.2681E+02  0.1792E+03
    -15.120  0.2683E+02  0.1796E+03
    -15.105  0.2687E+02  0.1800E+03
    -15.090  0.2694E+02  0.1804E+03
    -15.075  0.2704E+02  0.1808E+03
    -15.060  0.2716E+02  0.1812E+03
    -15.045  0.2731E+02  0.1816E+03
    -15.031  0.2747E+02  0.1820E+03
    -15.016  0.2766E+02  0.1824E+03
    -15.001  0.2787E+02  0.1829E+03
    -14.986  0.2811E+02  0.1833E+03
    -14.971  0.2836E+02  0.1837E+03
    -14.956  0.2863E+02  0.1841E+03
    -14.941  0.2892E+02  0.1845E+03
    -14.926  0.2922E+02  0.1850E+03
    -14.911  0.2954E+02  0.1854E+03
    -14.897  0.2986E+02  0.1859E+03
    -14.882  0.3017E+02  0.1863E+03
    -14.867  0.3049E+02  0.1868E+03
    -14.852  0.3078E+02  0.1872E+03
    -14.837  0.3105E+02  0.1877E+03
    -14.822  0.3129E+02  0.1882E+03
    -14.807  0.3149E+02  0.1886E+03
    -14.792  0.3164E+02  0.1891E+03
    -14.777  0.3174E+02  0.1896E+03
    -14.762  0.3179E+02  0.1900E+03
    -14.748  0.3178E+02  0.1905E+03
    -14.733  0.3172E+02  0.1910E+03
    -14.718  0.3161E+02  0.1915E+03
    -14.703  0.3145E+02  0.1919E+03
    -14.688  0.3125E+02  0.1924E+03
    -14.673  0.3101E+02  0.1929E+03
    -14.658  0.3076E+02  0.1933E+03
    -14.643  0.3049E+02  0.1938E+03
    -14.628  0.3023E+02  0.1942E+03
    -14.614  0.2997E+02  0.1947E+03
    -14.599  0.2972E+02  0.1951E+03
    -14.584  0.2950E+02  0.1955E+03
    -14.569  0.2931E+02  0.1960E+03
    -14.554  0.2915E+02  0.1964E+03
    -14.539  0.2902E+02  0.1968E+03
    -14.524  0.2893E+02  0.1973E+03
    -14.509  0.2886E+02  0.1977E+03
    -14.494  0.2883E+02  0.1981E+03
    -14.480  0.2883E+02  0.1986E+03
    -14.465  0.2884E+02  0.1990E+03
    -14.450  0.2887E+02  0.1994E+03
    -14.435  0.2891E+02  0.1999E+03
    -14.420  0.2896E+02  0.2003E+03
    -14.405  0.2900E+02  0.2007E+03
    -14.390  0.2904E+02  0.2012E+03
    -14.375  0.2908E+02  0.2016E+03
    -14.360  0.2911E+02  0.2020E+03
    -14.346  0.2912E+02  0.2025E+03
    -14.331  0.2913E+02  0.2029E+03
    -14.316  0.2913E+02  0.2033E+03
    -14.301  0.2912E+02  0.2038E+03
    -14.286  0.2911E+02  0.2042E+03
    -14.271  0.2910E+02  0.2046E+03
    -14.256  0.2908E+02  0.2051E+03
    -14.241  0.2908E+02  0.2055E+03
    -14.226  0.2908E+02  0.2059E+03
    -14.212  0.2910E+02  0.2064E+03
    -14.197  0.2913E+02  0.2068E+03
    -14.182  0.2918E+02  0.2072E+03
    -14.167  0.2924E+02  0.2077E+03
    -14.152  0.2933E+02  0.2081E+03
    -14.137  0.2943E+02  0.2085E+03
    -14.122  0.2956E+02  0.2090E+03
    -14.107  0.2970E+02  0.2094E+03
    -14.092  0.2985E+02  0.2099E+03
    -14.078  0.3001E+02  0.2103E+03
    -14.063  0.3017E+02  0.2108E+03
    -14.048  0.3034E+02  0.2112E+03
    -14.033  0.3050E+02  0.2117E+03
    -14.018  0.3066E+02  0.2121E+03
    -14.003  0.3080E+02  0.2126E+03
    -13.988  0.3092E+02  0.2130E+03
    -13.973  0.3103E+02  0.2135E+03
    -13.958  0.3112E+02  0.2140E+03
    -13.944  0.3118E+02  0.2144E+03
    -13.929  0.3123E+02  0.2149E+03
    -13.914  0.3126E+02  0.2154E+03
    -13.899  0.3127E+02  0.2158E+03
    -13.884  0.3126E+02  0.2163E+03
    -13.869  0.3124E+02  0.2168E+03
    -13.854  0.3121E+02  0.2172E+03
    -13.839  0.3116E+02  0.2177E+03
    -13.824  0.3112E+02  0.2181E+03
    -13.810  0.3107E+02  0.2186E+03
    -13.795  0.3102E+02  0.2191E+03
    -13.780  0.3096E+02  0.2195E+03
    -13.765  0.3091E+02  0.2200E+03
    -13.750  0.3085E+02  0.2204E+03
    -13.735  0.3080E+02  0.2209E+03
    -13.720  0.3075E+02  0.2214E+03
    -13.705  0.3069E+02  0.2218E+03
    -13.690  0.3063E+02  0.2223E+03
    -13.676  0.3058E+02  0.2227E+03
    -13.661  0.3052E+02  0.2232E+03
    -13.646  0.3045E+02  0.2236E+03
    -13.631  0.3039E+02  0.2241E+03
    -13.616  0.3032E+02  0.2245E+03
    -13.601  0.3025E+02  0.2250E+03
    -13.586  0.3018E+02  0.2254E+03
    -13.571  0.3010E+02  0.2259E+03
    -13.556  0.3003E+02  0.2263E+03
    -13.542  0.2995E+02  0.2268E+03
    -13.527  0.2987E+02  0.2272E+03
    -13.512  0.2980E+02  0.2277E+03
    -13.497  0.2972E+02  0.2281E+03
    -13.482  0.2964E+02  0.2286E+03
    -13.467  0.2956E+02  0.2290E+03
    -13.452  0.2948E+02  0.2294E+03
    -13.437  0.2940E+02  0.2299E+03
    -13.422  0.2932E+02  0.2303E+03
    -13.408  0.2925E+02  0.2307E+03
    -13.393  0.2917E+02  0.2312E+03
    -13.378  0.2909E+02  0.2316E+03
    -13.363  0.2902E+02  0.2320E+03
    -13.348  0.2895E+02  0.2325E+03
    -13.333  0.2888E+02  0.2329E+03
    -13.318  0.2882E+02  0.2333E+03
    -13.303  0.2876E+02  0.2338E+03
    -13.288  0.2871E+02  0.2342E+03
    -13.274  0.2867E+02  0.2346E+03
    -13.259  0.2864E+02  0.2350E+03
    -13.244  0.2862E+02  0.2355E+03
    -13.229  0.2862E+02  0.2359E+03
    -13.214  0.2864E+02  0.2363E+03
    -13.199  0.2867E+02  0.2368E+03
    -13.184  0.2872E+02  0.2372E+03
    -13.169  0.2879E+02  0.2376E+03
    -13.154  0.2887E+02  0.2380E+03
    -13.139  0.2898E+02  0.2385E+03
    -13.125  0.2911E+02  0.2389E+03
    -13.110  0.2925E+02  0.2393E+03
    -13.095  0.2941E+02  0.2398E+03
    -13.080  0.2959E+02  0.2402E+03
    -13.065  0.2977E+02  0.2407E+03
    -13.050  0.2997E+02  0.2411E+03
    -13.035  0.3017E+02  0.2416E+03
    -13.020  0.3038E+02  0.2420E+03
    -13.005  0.3059E+02  0.2425E+03
    -12.991  0.3079E+02  0.2429E+03
    -12.976  0.3100E+02  0.2434E+03
    -12.961  0.3119E+02  0.2438E+03
    -12.946  0.3137E+02  0.2443E+03
    -12.931  0.3154E+02  0.2448E+03
    -12.916  0.3170E+02  0.2453E+03
    -12.901  0.3184E+02  0.2457E+03
    -12.886  0.3196E+02  0.2462E+03
    -12.871  0.3206E+02  0.2467E+03
    -12.857  0.3213E+02  0.2472E+03
    -12.842  0.3218E+02  0.2476E+03
    -12.827  0.3221E+02  0.2481E+03
    -12.812  0.3221E+02  0.2486E+03
    -12.797  0.3218E+02  0.2491E+03
    -12.782  0.3213E+02  0.2496E+03
    -12.767  0.3206E+02  0.2500E+03
    -12.752  0.3196E+02  0.2505E+03
    -12.737  0.3185E+02  0.2510E+03
    -12.723  0.3171E+02  0.2515E+03
    -12.708  0.3157E+02  0.2519E+03
    -12.693  0.3141E+02  0.2524E+03
    -12.678  0.3125E+02  0.2529E+03
    -12.663  0.3109E+02  0.2533E+03
    -12.648  0.3094E+02  0.2538E+03
    -12.633  0.3080E+02  0.2542E+03
    -12.618  0.3067E+02  0.2547E+03
    -12.603  0.3055E+02  0.2552E+03
    -12.589  0.3046E+02  0.2556E+03
    -12.574  0.3040E+02  0.2561E+03
    -12.559  0.3035E+02  0.2565E+03
    -12.544  0.3034E+02  0.2570E+03
    -12.529  0.3035E+02  0.2574E+03
    -12.514  0.3038E+02  0.2579E+03
    -12.499  0.3044E+02  0.2583E+03
    -12.484  0.3052E+02  0.2588E+03
    -12.469  0.3063E+02  0.2592E+03
    -12.455  0.3075E+02  0.2597E+03
    -12.440  0.3089E+02  0.2602E+03
    -12.425  0.3104E+02  0.2606E+03
    -12.410  0.3120E+02  0.2611E+03
    -12.395  0.3137E+02  0.2615E+03
    -12.380  0.3155E+02  0.2620E+03
    -12.365  0.3172E+02  0.2625E+03
    -12.350  0.3190E+02  0.2630E+03
    -12.335  0.3207E+02  0.2634E+03
    -12.321  0.3224E+02  0.2639E+03
    -12.306  0.3240E+02  0.2644E+03
    -12.291  0.3255E+02  0.2649E+03
    -12.276  0.3269E+02  0.2654E+03
    -12.261  0.3281E+02  0.2659E+03
    -12.246  0.3291E+02  0.2664E+03
    -12.231  0.3299E+02  0.2668E+03
    -12.216  0.3304E+02  0.2673E+03
    -12.201  0.3307E+02  0.2678E+03
    -12.187  0.3308E+02  0.2683E+03
    -12.172  0.3306E+02  0.2688E+03
    -12.157  0.3300E+02  0.2693E+03
    -12.142  0.3292E+02  0.2698E+03
    -12.127  0.3282E+02  0.2703E+03
    -12.112  0.3268E+02  0.2708E+03
    -12.097  0.3252E+02  0.2713E+03
    -12.082  0.3234E+02  0.2717E+03
    -12.067  0.3215E+02  0.2722E+03
    -12.053  0.3194E+02  0.2727E+03
    -12.038  0.3173E+02  0.2732E+03
    -12.023  0.3151E+02  0.2736E+03
    -12.008  0.3131E+02  0.2741E+03
    -11.993  0.3111E+02  0.2746E+03
    -11.978  0.3093E+02  0.2750E+03
    -11.963  0.3078E+02  0.2755E+03
    -11.948  0.3065E+02  0.2759E+03
    -11.933  0.3056E+02  0.2764E+03
    -11.919  0.3049E+02  0.2768E+03
    -11.904  0.3046E+02  0.2773E+03
    -11.889  0.3046E+02  0.2778E+03
    -11.874  0.3049E+02  0.2782E+03
    -11.859  0.3055E+02  0.2787E+03
    -11.844  0.3063E+02  0.2791E+03
    -11.829  0.3074E+02  0.2796E+03
    -11.814  0.3085E+02  0.2800E+03
    -11.799  0.3098E+02  0.2805E+03
    -11.785  0.3111E+02  0.2810E+03
    -11.770  0.3125E+02  0.2814E+03
    -11.755  0.3138E+02  0.2819E+03
    -11.740  0.3151E+02  0.2824E+03
    -11.725  0.3163E+02  0.2828E+03
    -11.710  0.3174E+02  0.2833E+03
    -11.695  0.3184E+02  0.2838E+03
    -11.680  0.3194E+02  0.2843E+03
    -11.665  0.3203E+02  0.2847E+03
    -11.651  0.3211E+02  0.2852E+03
    -11.636  0.3219E+02  0.2857E+03
    -11.621  0.3227E+02  0.2862E+03