 115 115   0   0
  0.5484406E+02  0.3305172E-08  0.9541209E-09  0.2000000E-08  0.5000000E-15
  1.000000000000000E-004
  CAR 
 unknown system                          
      2.52883395    -24.99580691 2000     -4.02318661      1.00000000
    -24.996  0.0000E+00  0.0000E+00
    -24.982  0.0000E+00  0.0000E+00
    -24.968  0.0000E+00  0.0000E+00
    -24.954  0.0000E+00  0.0000E+00
    -24.941  0.0000E+00  0.0000E+00
    -24.927  0.0000E+00  0.0000E+00
    -24.913  0.0000E+00  0.0000E+00
    -24.899  0.0000E+00  0.0000E+00
    -24.886  0.0000E+00  0.0000E+00
    -24.872  0.0000E+00  0.0000E+00
    -24.858  0.0000E+00  0.0000E+00
    -24.844  0.0000E+00  0.0000E+00
    -24.831  0.0000E+00  0.0000E+00
    -24.817  0.0000E+00  0.0000E+00
    -24.803  0.0000E+00  0.0000E+00
    -24.789  0.0000E+00  0.0000E+00
    -24.775  0.0000E+00  0.0000E+00
    -24.762  0.0000E+00  0.0000E+00
    -24.748  0.0000E+00  0.0000E+00
    -24.734  0.0000E+00  0.0000E+00
    -24.720  0.0000E+00  0.0000E+00
    -24.707  0.0000E+00  0.0000E+00
    -24.693  0.0000E+00  0.0000E+00
    -24.679  0.0000E+00  0.0000E+00
    -24.665  0.0000E+00  0.0000E+00
    -24.652  0.0000E+00  0.0000E+00
    -24.638  0.0000E+00  0.0000E+00
    -24.624  0.0000E+00  0.0000E+00
    -24.610  0.0000E+00  0.0000E+00
    -24.596  0.0000E+00  0.0000E+00
    -24.583  0.0000E+00  0.0000E+00
    -24.569  0.0000E+00  0.0000E+00
    -24.555  0.0000E+00  0.0000E+00
    -24.541  0.0000E+00  0.0000E+00
    -24.528  0.0000E+00  0.0000E+00
    -24.514  0.0000E+00  0.0000E+00
    -24.500  0.0000E+00  0.0000E+00
    -24.486  0.0000E+00  0.0000E+00
    -24.473  0.0000E+00  0.0000E+00
    -24.459  0.0000E+00  0.0000E+00
    -24.445  0.0000E+00  0.0000E+00
    -24.431  0.0000E+00  0.0000E+00
    -24.418  0.0000E+00  0.0000E+00
    -24.404  0.0000E+00  0.0000E+00
    -24.390  0.0000E+00  0.0000E+00
    -24.376  0.0000E+00  0.0000E+00
    -24.362  0.0000E+00  0.0000E+00
    -24.349  0.0000E+00  0.0000E+00
    -24.335  0.0000E+00  0.0000E+00
    -24.321  0.0000E+00  0.0000E+00
    -24.307  0.0000E+00  0.0000E+00
    -24.294  0.0000E+00  0.0000E+00
    -24.280  0.0000E+00  0.0000E+00
    -24.266  0.0000E+00  0.0000E+00
    -24.252  0.0000E+00  0.0000E+00
    -24.239  0.0000E+00  0.0000E+00
    -24.225  0.0000E+00  0.0000E+00
    -24.211  0.0000E+00  0.0000E+00
    -24.197  0.0000E+00  0.0000E+00
    -24.183  0.0000E+00  0.0000E+00
    -24.170  0.2688E-14  0.3701E-16
    -24.156  0.2688E-14  0.7401E-16
    -24.142  0.8063E-14  0.1850E-15
    -24.128  0.1344E-13  0.3701E-15
    -24.115  0.3494E-13  0.8512E-15
    -24.101  0.7794E-13  0.1924E-14
    -24.087  0.1559E-12  0.4071E-14
    -24.073  0.3413E-12  0.8771E-14
    -24.060  0.7122E-12  0.1858E-13
    -24.046  0.1486E-11  0.3904E-13
    -24.032  0.3067E-11  0.8127E-13
    -24.018  0.6265E-11  0.1675E-12
    -24.004  0.1267E-10  0.3420E-12
    -23.991  0.2543E-10  0.6921E-12
    -23.977  0.5050E-10  0.1388E-11
    -23.963  0.9941E-10  0.2756E-11
    -23.949  0.1938E-09  0.5425E-11
    -23.936  0.3744E-09  0.1058E-10
    -23.922  0.7165E-09  0.2045E-10
    -23.908  0.1358E-08  0.3915E-10
    -23.894  0.2551E-08  0.7428E-10
    -23.881  0.4748E-08  0.1396E-09
    -23.867  0.8752E-08  0.2602E-09
    -23.853  0.1599E-07  0.4803E-09
    -23.839  0.2893E-07  0.8786E-09
    -23.825  0.5186E-07  0.1593E-08
    -23.812  0.9211E-07  0.2861E-08
    -23.798  0.1621E-06  0.5092E-08
    -23.784  0.2826E-06  0.8983E-08
    -23.770  0.4881E-06  0.1570E-07
    -23.757  0.8354E-06  0.2721E-07
    -23.743  0.1417E-05  0.4671E-07
    -23.729  0.2380E-05  0.7948E-07
    -23.715  0.3962E-05  0.1340E-06
    -23.702  0.6534E-05  0.2240E-06
    -23.688  0.1068E-04  0.3710E-06
    -23.674  0.1729E-04  0.6091E-06
    -23.660  0.2774E-04  0.9911E-06
    -23.646  0.4410E-04  0.1598E-05
    -23.633  0.6947E-04  0.2555E-05
    -23.619  0.1084E-03  0.4048E-05
    -23.605  0.1677E-03  0.6357E-05
    -23.591  0.2570E-03  0.9896E-05
    -23.578  0.3903E-03  0.1527E-04
    -23.564  0.5874E-03  0.2336E-04
    -23.550  0.8760E-03  0.3542E-04
    -23.536  0.1294E-02  0.5324E-04
    -23.523  0.1896E-02  0.7934E-04
    -23.509  0.2751E-02  0.1172E-03
    -23.495  0.3956E-02  0.1717E-03
    -23.481  0.5638E-02  0.2493E-03
    -23.467  0.7963E-02  0.3590E-03
    -23.454  0.1115E-01  0.5124E-03
    -23.440  0.1546E-01  0.7253E-03
    -23.426  0.2126E-01  0.1018E-02
    -23.412  0.2896E-01  0.1417E-02
    -23.399  0.3911E-01  0.1955E-02
    -23.385  0.5234E-01  0.2676E-02
    -23.371  0.6942E-01  0.3632E-02
    -23.357  0.9126E-01  0.4888E-02
    -23.344  0.1189E+00  0.6526E-02
    -23.330  0.1536E+00  0.8640E-02
    -23.316  0.1966E+00  0.1135E-01
    -23.302  0.2494E+00  0.1478E-01
    -23.288  0.3136E+00  0.1910E-01
    -23.275  0.3908E+00  0.2448E-01
    -23.261  0.4828E+00  0.3113E-01
    -23.247  0.5912E+00  0.3927E-01
    -23.233  0.7176E+00  0.4915E-01
    -23.220  0.8634E+00  0.6104E-01
    -23.206  0.1030E+01  0.7521E-01
    -23.192  0.1217E+01  0.9197E-01
    -23.178  0.1426E+01  0.1116E+00
    -23.165  0.1656E+01  0.1344E+00
    -23.151  0.1906E+01  0.1607E+00
    -23.137  0.2176E+01  0.1906E+00
    -23.123  0.2461E+01  0.2245E+00
    -23.109  0.2759E+01  0.2625E+00
    -23.096  0.3067E+01  0.3047E+00
    -23.082  0.3379E+01  0.3512E+00
    -23.068  0.3690E+01  0.4020E+00
    -23.054  0.3995E+01  0.4571E+00
    -23.041  0.4288E+01  0.5161E+00
    -23.027  0.4562E+01  0.5789E+00
    -23.013  0.4812E+01  0.6452E+00
    -22.999  0.5032E+01  0.7144E+00
    -22.986  0.5217E+01  0.7863E+00
    -22.972  0.5364E+01  0.8601E+00
    -22.958  0.5469E+01  0.9354E+00
    -22.944  0.5531E+01  0.1012E+01
    -22.930  0.5550E+01  0.1088E+01
    -22.917  0.5527E+01  0.1164E+01
    -22.903  0.5464E+01  0.1239E+01
    -22.889  0.5366E+01  0.1313E+01
    -22.875  0.5238E+01  0.1385E+01
    -22.862  0.5087E+01  0.1455E+01
    -22.848  0.4919E+01  0.1523E+01
    -22.834  0.4743E+01  0.1588E+01
    -22.820  0.4567E+01  0.1651E+01
    -22.807  0.4400E+01  0.1712E+01
    -22.793  0.4249E+01  0.1770E+01
    -22.779  0.4122E+01  0.1827E+01
    -22.765  0.4026E+01  0.1883E+01
    -22.751  0.3965E+01  0.1937E+01
    -22.738  0.3945E+01  0.1992E+01
    -22.724  0.3967E+01  0.2046E+01
    -22.710  0.4034E+01  0.2102E+01
    -22.696  0.4143E+01  0.2159E+01
    -22.683  0.4294E+01  0.2218E+01
    -22.669  0.4483E+01  0.2280E+01
    -22.655  0.4705E+01  0.2344E+01
    -22.641  0.4954E+01  0.2413E+01
    -22.628  0.5225E+01  0.2485E+01
    -22.614  0.5510E+01  0.2560E+01
    -22.600  0.5803E+01  0.2640E+01
    -22.586  0.6095E+01  0.2724E+01
    -22.572  0.6381E+01  0.2812E+01
    -22.559  0.6654E+01  0.2904E+01
    -22.545  0.6909E+01  0.2999E+01
    -22.531  0.7142E+01  0.3097E+01
    -22.517  0.7351E+01  0.3198E+01
    -22.504  0.7531E+01  0.3302E+01
    -22.490  0.7684E+01  0.3408E+01
    -22.476  0.7808E+01  0.3515E+01
    -22.462  0.7905E+01  0.3624E+01
    -22.449  0.7976E+01  0.3734E+01
    -22.435  0.8025E+01  0.3845E+01
    -22.421  0.8052E+01  0.3955E+01
    -22.407  0.8062E+01  0.4066E+01
    -22.393  0.8058E+01  0.4177E+01
    -22.380  0.8042E+01  0.4288E+01
    -22.366  0.8019E+01  0.4399E+01
    -22.352  0.7991E+01  0.4509E+01
    -22.338  0.7961E+01  0.4618E+01
    -22.325  0.7933E+01  0.4727E+01
    -22.311  0.7909E+01  0.4836E+01
    -22.297  0.7893E+01  0.4945E+01
    -22.283  0.7888E+01  0.5054E+01
    -22.270  0.7896E+01  0.5162E+01
    -22.256  0.7920E+01  0.5271E+01
    -22.242  0.7965E+01  0.5381E+01
    -22.228  0.8031E+01  0.5492E+01
    -22.214  0.8121E+01  0.5604E+01
    -22.201  0.8238E+01  0.5717E+01
    -22.187  0.8383E+01  0.5832E+01
    -22.173  0.8556E+01  0.5950E+01
    -22.159  0.8758E+01  0.6071E+01
    -22.146  0.8988E+01  0.6195E+01
    -22.132  0.9243E+01  0.6322E+01
    -22.118  0.9522E+01  0.6453E+01
    -22.104  0.9821E+01  0.6588E+01
    -22.091  0.1014E+02  0.6728E+01
    -22.077  0.1046E+02  0.6872E+01
    -22.063  0.1079E+02  0.7020E+01
    -22.049  0.1112E+02  0.7173E+01
    -22.035  0.1145E+02  0.7331E+01
    -22.022  0.1177E+02  0.7493E+01
    -22.008  0.1207E+02  0.7659E+01
    -21.994  0.1235E+02  0.7829E+01
    -21.980  0.1261E+02  0.8003E+01
    -21.967  0.1284E+02  0.8180E+01
    -21.953  0.1305E+02  0.8360E+01
    -21.939  0.1322E+02  0.8542E+01
    -21.925  0.1336E+02  0.8726E+01
    -21.912  0.1347E+02  0.8911E+01
    -21.898  0.1356E+02  0.9098E+01
    -21.884  0.1361E+02  0.9285E+01
    -21.870  0.1364E+02  0.9473E+01
    -21.856  0.1365E+02  0.9661E+01
    -21.843  0.1365E+02  0.9849E+01
    -21.829  0.1363E+02  0.1004E+02
    -21.815  0.1360E+02  0.1022E+02
    -21.801  0.1357E+02  0.1041E+02
    -21.788  0.1354E+02  0.1060E+02
    -21.774  0.1352E+02  0.1078E+02
    -21.760  0.1351E+02  0.1097E+02
    -21.746  0.1351E+02  0.1116E+02
    -21.733  0.1354E+02  0.1134E+02
    -21.719  0.1359E+02  0.1153E+02
    -21.705  0.1365E+02  0.1172E+02
    -21.691  0.1375E+02  0.1191E+02
    -21.677  0.1386E+02  0.1210E+02
    -21.664  0.1399E+02  0.1229E+02
    -21.650  0.1414E+02  0.1248E+02
    -21.636  0.1430E+02  0.1268E+02
    -21.622  0.1447E+02  0.1288E+02
    -21.609  0.1464E+02  0.1308E+02
    -21.595  0.1479E+02  0.1329E+02
    -21.581  0.1494E+02  0.1349E+02
    -21.567  0.1507E+02  0.1370E+02
    -21.554  0.1517E+02  0.1391E+02
    -21.540  0.1524E+02  0.1412E+02
    -21.526  0.1529E+02  0.1433E+02
    -21.512  0.1530E+02  0.1454E+02
    -21.498  0.1527E+02  0.1475E+02
    -21.485  0.1522E+02  0.1496E+02
    -21.471  0.1515E+02  0.1517E+02
    -21.457  0.1505E+02  0.1537E+02
    -21.443  0.1494E+02  0.1558E+02
    -21.430  0.1482E+02  0.1578E+02
    -21.416  0.1470E+02  0.1599E+02
    -21.402  0.1459E+02  0.1619E+02
    -21.388  0.1450E+02  0.1639E+02
    -21.375  0.1443E+02  0.1659E+02
    -21.361  0.1439E+02  0.1678E+02
    -21.347  0.1438E+02  0.1698E+02
    -21.333  0.1441E+02  0.1718E+02
    -21.319  0.1448E+02  0.1738E+02
    -21.306  0.1459E+02  0.1758E+02
    -21.292  0.1474E+02  0.1778E+02
    -21.278  0.1493E+02  0.1799E+02
    -21.264  0.1515E+02  0.1820E+02
    -21.251  0.1541E+02  0.1841E+02
    -21.237  0.1569E+02  0.1863E+02
    -21.223  0.1600E+02  0.1885E+02
    -21.209  0.1632E+02  0.1907E+02
    -21.196  0.1665E+02  0.1930E+02
    -21.182  0.1698E+02  0.1953E+02
    -21.168  0.1732E+02  0.1977E+02
    -21.154  0.1765E+02  0.2002E+02
    -21.140  0.1798E+02  0.2026E+02
    -21.127  0.1829E+02  0.2052E+02
    -21.113  0.1858E+02  0.2077E+02
    -21.099  0.1886E+02  0.2103E+02
    -21.085  0.1912E+02  0.2129E+02
    -21.072  0.1935E+02  0.2156E+02
    -21.058  0.1957E+02  0.2183E+02
    -21.044  0.1976E+02  0.2210E+02
    -21.030  0.1994E+02  0.2238E+02
    -21.017  0.2009E+02  0.2265E+02
    -21.003  0.2022E+02  0.2293E+02
    -20.989  0.2034E+02  0.2321E+02
    -20.975  0.2045E+02  0.2349E+02
    -20.961  0.2054E+02  0.2378E+02
    -20.948  0.2062E+02  0.2406E+02
    -20.934  0.2069E+02  0.2434E+02
    -20.920  0.2075E+02  0.2463E+02
    -20.906  0.2081E+02  0.2492E+02
    -20.893  0.2087E+02  0.2520E+02
    -20.879  0.2093E+02  0.2549E+02
    -20.865  0.2098E+02  0.2578E+02
    -20.851  0.2104E+02  0.2607E+02
    -20.838  0.2110E+02  0.2636E+02
    -20.824  0.2117E+02  0.2665E+02
    -20.810  0.2123E+02  0.2695E+02
    -20.796  0.2130E+02  0.2724E+02
    -20.782  0.2136E+02  0.2753E+02
    -20.769  0.2143E+02  0.2783E+02
    -20.755  0.2148E+02  0.2812E+02
    -20.741  0.2153E+02  0.2842E+02
    -20.727  0.2157E+02  0.2872E+02
    -20.714  0.2160E+02  0.2901E+02
    -20.700  0.2161E+02  0.2931E+02
    -20.686  0.2159E+02  0.2961E+02
    -20.672  0.2156E+02  0.2991E+02
    -20.659  0.2150E+02  0.3020E+02
    -20.645  0.2141E+02  0.3050E+02
    -20.631  0.2129E+02  0.3079E+02
    -20.617  0.2114E+02  0.3108E+02
    -20.603  0.2096E+02  0.3137E+02
    -20.590  0.2075E+02  0.3166E+02
    -20.576  0.2051E+02  0.3194E+02
    -20.562  0.2025E+02  0.3222E+02
    -20.548  0.1997E+02  0.3249E+02
    -20.535  0.1967E+02  0.3276E+02
    -20.521  0.1936E+02  0.3303E+02
    -20.507  0.1904E+02  0.3329E+02
    -20.493  0.1873E+02  0.3355E+02
    -20.480  0.1842E+02  0.3380E+02
    -20.466  0.1813E+02  0.3405E+02
    -20.452  0.1785E+02  0.3430E+02
    -20.438  0.1760E+02  0.3454E+02
    -20.424  0.1738E+02  0.3478E+02
    -20.411  0.1720E+02  0.3502E+02
    -20.397  0.1704E+02  0.3525E+02
    -20.383  0.1693E+02  0.3548E+02
    -20.369  0.1684E+02  0.3572E+02
    -20.356  0.1680E+02  0.3595E+02
    -20.342  0.1679E+02  0.3618E+02
    -20.328  0.1681E+02  0.3641E+02
    -20.314  0.1685E+02  0.3664E+02
    -20.301  0.1692E+02  0.3688E+02
    -20.287  0.1701E+02  0.3711E+02
    -20.273  0.1712E+02  0.3735E+02
    -20.259  0.1723E+02  0.3758E+02
    -20.245  0.1735E+02  0.3782E+02
    -20.232  0.1748E+02  0.3806E+02
    -20.218  0.1761E+02  0.3830E+02
    -20.204  0.1773E+02  0.3855E+02
    -20.190  0.1786E+02  0.3879E+02
    -20.177  0.1798E+02  0.3904E+02
    -20.163  0.1809E+02  0.3929E+02
    -20.149  0.1819E+02  0.3954E+02
    -20.135  0.1829E+02  0.3979E+02
    -20.122  0.1839E+02  0.4005E+02
    -20.108  0.1847E+02  0.4030E+02
    -20.094  0.1855E+02  0.4056E+02
    -20.080  0.1862E+02  0.4081E+02
    -20.066  0.1868E+02  0.4107E+02
    -20.053  0.1872E+02  0.4133E+02
    -20.039  0.1876E+02  0.4159E+02
    -20.025  0.1878E+02  0.4184E+02
    -20.011  0.1879E+02  0.4210E+02
    -19.998  0.1878E+02  0.4236E+02
    -19.984  0.1875E+02  0.4262E+02
    -19.970  0.1870E+02  0.4288E+02
    -19.956  0.1863E+02  0.4313E+02
    -19.943  0.1853E+02  0.4339E+02
    -19.929  0.1841E+02  0.4364E+02
    -19.915  0.1826E+02  0.4389E+02
    -19.901  0.1810E+02  0.4414E+02
    -19.887  0.1791E+02  0.4439E+02
    -19.874  0.1771E+02  0.4463E+02
    -19.860  0.1750E+02  0.4487E+02
    -19.846  0.1728E+02  0.4511E+02
    -19.832  0.1705E+02  0.4535E+02
    -19.819  0.1684E+02  0.4558E+02
    -19.805  0.1663E+02  0.4581E+02
    -19.791  0.1644E+02  0.4603E+02
    -19.777  0.1627E+02  0.4626E+02
    -19.764  0.1613E+02  0.4648E+02
    -19.750  0.1602E+02  0.4670E+02
    -19.736  0.1595E+02  0.4692E+02
    -19.722  0.1591E+02  0.4714E+02
    -19.708  0.1591E+02  0.4736E+02
    -19.695  0.1594E+02  0.4758E+02
    -19.681  0.1601E+02  0.4780E+02
    -19.667  0.1611E+02  0.4802E+02
    -19.653  0.1623E+02  0.4824E+02
    -19.640  0.1637E+02  0.4847E+02
    -19.626  0.1653E+02  0.4870E+02
    -19.612  0.1669E+02  0.4893E+02
    -19.598  0.1686E+02  0.4916E+02
    -19.585  0.1702E+02  0.4939E+02
    -19.571  0.1716E+02  0.4963E+02
    -19.557  0.1729E+02  0.4987E+02
    -19.543  0.1740E+02  0.5011E+02
    -19.529  0.1748E+02  0.5035E+02
    -19.516  0.1754E+02  0.5059E+02
    -19.502  0.1757E+02  0.5083E+02
    -19.488  0.1756E+02  0.5107E+02
    -19.474  0.1753E+02  0.5132E+02
    -19.461  0.1747E+02  0.5156E+02
    -19.447  0.1738E+02  0.5179E+02
    -19.433  0.1727E+02  0.5203E+02
    -19.419  0.1714E+02  0.5227E+02
    -19.406  0.1699E+02  0.5250E+02
    -19.392  0.1683E+02  0.5273E+02
    -19.378  0.1666E+02  0.5296E+02
    -19.364  0.1648E+02  0.5319E+02
    -19.350  0.1630E+02  0.5342E+02
    -19.337  0.1611E+02  0.5364E+02
    -19.323  0.1593E+02  0.5386E+02
    -19.309  0.1576E+02  0.5407E+02
    -19.295  0.1559E+02  0.5429E+02
    -19.282  0.1544E+02  0.5450E+02
    -19.268  0.1531E+02  0.5471E+02
    -19.254  0.1519E+02  0.5492E+02
    -19.240  0.1510E+02  0.5513E+02
    -19.227  0.1503E+02  0.5534E+02
    -19.213  0.1499E+02  0.5554E+02
    -19.199  0.1498E+02  0.5575E+02
    -19.185  0.1499E+02  0.5595E+02
    -19.171  0.1504E+02  0.5616E+02
    -19.158  0.1512E+02  0.5637E+02
    -19.144  0.1523E+02  0.5658E+02
    -19.130  0.1538E+02  0.5679E+02
    -19.116  0.1555E+02  0.5701E+02
    -19.103  0.1574E+02  0.5722E+02
    -19.089  0.1596E+02  0.5744E+02
    -19.075  0.1619E+02  0.5766E+02
    -19.061  0.1643E+02  0.5789E+02
    -19.048  0.1668E+02  0.5812E+02
    -19.034  0.1692E+02  0.5835E+02
    -19.020  0.1716E+02  0.5859E+02
    -19.006  0.1738E+02  0.5883E+02
    -18.992  0.1758E+02  0.5907E+02
    -18.979  0.1775E+02  0.5932E+02
    -18.965  0.1790E+02  0.5956E+02
    -18.951  0.1801E+02  0.5981E+02
    -18.937  0.1808E+02  0.6006E+02
    -18.924  0.1812E+02  0.6031E+02
    -18.910  0.1812E+02  0.6056E+02
    -18.896  0.1809E+02  0.6081E+02
    -18.882  0.1803E+02  0.6106E+02
    -18.869  0.1794E+02  0.6130E+02
    -18.855  0.1783E+02  0.6155E+02
    -18.841  0.1771E+02  0.6179E+02
    -18.827  0.1758E+02  0.6203E+02
    -18.813  0.1745E+02  0.6227E+02
    -18.800  0.1733E+02  0.6251E+02
    -18.786  0.1722E+02  0.6275E+02
    -18.772  0.1713E+02  0.6299E+02
    -18.758  0.1707E+02  0.6322E+02
    -18.745  0.1703E+02  0.6346E+02
    -18.731  0.1703E+02  0.6369E+02
    -18.717  0.1706E+02  0.6392E+02
    -18.703  0.1712E+02  0.6416E+02
    -18.690  0.1721E+02  0.6440E+02
    -18.676  0.1734E+02  0.6464E+02
    -18.662  0.1749E+02  0.6488E+02
    -18.648  0.1767E+02  0.6512E+02
    -18.634  0.1787E+02  0.6537E+02
    -18.621  0.1809E+02  0.6562E+02
    -18.607  0.1833E+02  0.6587E+02
    -18.593  0.1858E+02  0.6612E+02
    -18.579  0.1883E+02  0.6638E+02
    -18.566  0.1909E+02  0.6665E+02
    -18.552  0.1936E+02  0.6691E+02
    -18.538  0.1962E+02  0.6718E+02
    -18.524  0.1988E+02  0.6746E+02
    -18.511  0.2014E+02  0.6773E+02
    -18.497  0.2039E+02  0.6801E+02
    -18.483  0.2064E+02  0.6830E+02
    -18.469  0.2087E+02  0.6859E+02
    -18.455  0.2109E+02  0.6888E+02
    -18.442  0.2129E+02  0.6917E+02
    -18.428  0.2148E+02  0.6947E+02
    -18.414  0.2165E+02  0.6976E+02
    -18.400  0.2179E+02  0.7006E+02
    -18.387  0.2190E+02  0.7037E+02
    -18.373  0.2199E+02  0.7067E+02
    -18.359  0.2203E+02  0.7097E+02
    -18.345  0.2205E+02  0.7127E+02
    -18.332  0.2202E+02  0.7158E+02
    -18.318  0.2195E+02  0.7188E+02
    -18.304  0.2184E+02  0.7218E+02
    -18.290  0.2168E+02  0.7248E+02
    -18.276  0.2149E+02  0.7278E+02
    -18.263  0.2127E+02  0.7307E+02
    -18.249  0.2101E+02  0.7336E+02
    -18.235  0.2073E+02  0.7364E+02
    -18.221  0.2042E+02  0.7392E+02
    -18.208  0.2010E+02  0.7420E+02
    -18.194  0.1977E+02  0.7447E+02
    -18.180  0.1944E+02  0.7474E+02
    -18.166  0.1911E+02  0.7500E+02
    -18.153  0.1880E+02  0.7526E+02
    -18.139  0.1850E+02  0.7552E+02
    -18.125  0.1822E+02  0.7577E+02
    -18.111  0.1797E+02  0.7602E+02
    -18.097  0.1775E+02  0.7626E+02
    -18.084  0.1756E+02  0.7650E+02
    -18.070  0.1740E+02  0.7674E+02
    -18.056  0.1728E+02  0.7698E+02
    -18.042  0.1719E+02  0.7722E+02
    -18.029  0.1714E+02  0.7745E+02
    -18.015  0.1711E+02  0.7769E+02
    -18.001  0.1711E+02  0.7792E+02
    -17.987  0.1714E+02  0.7816E+02
    -17.974  0.1720E+02  0.7840E+02
    -17.960  0.1727E+02  0.7863E+02
    -17.946  0.1737E+02  0.7887E+02
    -17.932  0.1749E+02  0.7911E+02
    -17.918  0.1762E+02  0.7936E+02
    -17.905  0.1776E+02  0.7960E+02
    -17.891  0.1791E+02  0.7985E+02
    -17.877  0.1807E+02  0.8010E+02
    -17.863  0.1823E+02  0.8035E+02
    -17.850  0.1840E+02  0.8060E+02
    -17.836  0.1856E+02  0.8086E+02
    -17.822  0.1872E+02  0.8111E+02
    -17.808  0.1887E+02  0.8137E+02
    -17.795  0.1901E+02  0.8164E+02
    -17.781  0.1913E+02  0.8190E+02
    -17.767  0.1923E+02  0.8216E+02
    -17.753  0.1931E+02  0.8243E+02
    -17.739  0.1936E+02  0.8270E+02
    -17.726  0.1939E+02  0.8296E+02
    -17.712  0.1939E+02  0.8323E+02
    -17.698  0.1935E+02  0.8350E+02
    -17.684  0.1929E+02  0.8376E+02
    -17.671  0.1920E+02  0.8403E+02
    -17.657  0.1908E+02  0.8429E+02
    -17.643  0.1894E+02  0.8455E+02
    -17.629  0.1878E+02  0.8481E+02
    -17.616  0.1860E+02  0.8506E+02
    -17.602  0.1842E+02  0.8532E+02
    -17.588  0.1823E+02  0.8557E+02
    -17.574  0.1804E+02  0.8582E+02
    -17.560  0.1785E+02  0.8606E+02
    -17.547  0.1768E+02  0.8631E+02
    -17.533  0.1752E+02  0.8655E+02
    -17.519  0.1738E+02  0.8679E+02
    -17.505  0.1726E+02  0.8703E+02
    -17.492  0.1715E+02  0.8726E+02
    -17.478  0.1708E+02  0.8750E+02
    -17.464  0.1702E+02  0.8773E+02
    -17.450  0.1699E+02  0.8796E+02
    -17.437  0.1697E+02  0.8820E+02
    -17.423  0.1698E+02  0.8843E+02
    -17.409  0.1700E+02  0.8867E+02
    -17.395  0.1704E+02  0.8890E+02
    -17.381  0.1709E+02  0.8914E+02
    -17.368  0.1714E+02  0.8937E+02
    -17.354  0.1719E+02  0.8961E+02
    -17.340  0.1725E+02  0.8985E+02
    -17.326  0.1730E+02  0.9008E+02
    -17.313  0.1734E+02  0.9032E+02
    -17.299  0.1737E+02  0.9056E+02
    -17.285  0.1738E+02  0.9080E+02
    -17.271  0.1738E+02  0.9104E+02
    -17.258  0.1736E+02  0.9128E+02
    -17.244  0.1732E+02  0.9152E+02
    -17.230  0.1726E+02  0.9176E+02
    -17.216  0.1719E+02  0.9199E+02
    -17.202  0.1710E+02  0.9223E+02
    -17.189  0.1700E+02  0.9246E+02
    -17.175  0.1688E+02  0.9270E+02
    -17.161  0.1676E+02  0.9293E+02
    -17.147  0.1664E+02  0.9316E+02
    -17.134  0.1653E+02  0.9338E+02
    -17.120  0.1642E+02  0.9361E+02
    -17.106  0.1632E+02  0.9383E+02
    -17.092  0.1624E+02  0.9406E+02
    -17.079  0.1618E+02  0.9428E+02
    -17.065  0.1614E+02  0.9450E+02
    -17.051  0.1612E+02  0.9472E+02
    -17.037  0.1612E+02  0.9495E+02
    -17.023  0.1615E+02  0.9517E+02
    -17.010  0.1621E+02  0.9539E+02
    -16.996  0.1628E+02  0.9562E+02
    -16.982  0.1637E+02  0.9584E+02
    -16.968  0.1648E+02  0.9607E+02
    -16.955  0.1661E+02  0.9630E+02
    -16.941  0.1674E+02  0.9653E+02
    -16.927  0.1688E+02  0.9676E+02
    -16.913  0.1703E+02  0.9699E+02
    -16.900  0.1718E+02  0.9723E+02
    -16.886  0.1733E+02  0.9747E+02
    -16.872  0.1748E+02  0.9771E+02
    -16.858  0.1762E+02  0.9795E+02
    -16.844  0.1777E+02  0.9820E+02
    -16.831  0.1790E+02  0.9844E+02
    -16.817  0.1803E+02  0.9869E+02
    -16.803  0.1816E+02  0.9894E+02
    -16.789  0.1827E+02  0.9919E+02
    -16.776  0.1837E+02  0.9945E+02
    -16.762  0.1845E+02  0.9970E+02
    -16.748  0.1852E+02  0.9996E+02
    -16.734  0.1857E+02  0.1002E+03
    -16.721  0.1861E+02  0.1005E+03
    -16.707  0.1862E+02  0.1007E+03
    -16.693  0.1862E+02  0.1010E+03
    -16.679  0.1860E+02  0.1012E+03
    -16.665  0.1857E+02  0.1015E+03
    -16.652  0.1853E+02  0.1017E+03
    -16.638  0.1848E+02  0.1020E+03
    -16.624  0.1843E+02  0.1023E+03
    -16.610  0.1838E+02  0.1025E+03
    -16.597  0.1835E+02  0.1028E+03
    -16.583  0.1832E+02  0.1030E+03
    -16.569  0.1832E+02  0.1033E+03
    -16.555  0.1834E+02  0.1035E+03
    -16.542  0.1839E+02  0.1038E+03
    -16.528  0.1848E+02  0.1040E+03
    -16.514  0.1859E+02  0.1043E+03
    -16.500  0.1873E+02  0.1045E+03
    -16.486  0.1891E+02  0.1048E+03
    -16.473  0.1910E+02  0.1051E+03
    -16.459  0.1932E+02  0.1053E+03
    -16.445  0.1956E+02  0.1056E+03
    -16.431  0.1980E+02  0.1059E+03
    -16.418  0.2005E+02  0.1061E+03
    -16.404  0.2029E+02  0.1064E+03
    -16.390  0.2052E+02  0.1067E+03
    -16.376  0.2073E+02  0.1070E+03
    -16.363  0.2093E+02  0.1073E+03
    -16.349  0.2110E+02  0.1076E+03
    -16.335  0.2124E+02  0.1079E+03
    -16.321  0.2136E+02  0.1082E+03
    -16.307  0.2145E+02  0.1085E+03
    -16.294  0.2152E+02  0.1088E+03
    -16.280  0.2156E+02  0.1090E+03
    -16.266  0.2159E+02  0.1093E+03
    -16.252  0.2160E+02  0.1096E+03
    -16.239  0.2159E+02  0.1099E+03
    -16.225  0.2157E+02  0.1102E+03
    -16.211  0.2154E+02  0.1105E+03
    -16.197  0.2151E+02  0.1108E+03
    -16.184  0.2147E+02  0.1111E+03
    -16.170  0.2143E+02  0.1114E+03
    -16.156  0.2138E+02  0.1117E+03
    -16.142  0.2132E+02  0.1120E+03
    -16.128  0.2125E+02  0.1123E+03
    -16.115  0.2118E+02  0.1126E+03
    -16.101  0.2109E+02  0.1129E+03
    -16.087  0.2099E+02  0.1132E+03
    -16.073  0.2087E+02  0.1135E+03
    -16.060  0.2074E+02  0.1137E+03
    -16.046  0.2059E+02  0.1140E+03
    -16.032  0.2042E+02  0.1143E+03
    -16.018  0.2024E+02  0.1146E+03
    -16.005  0.2004E+02  0.1149E+03
    -15.991  0.1982E+02  0.1151E+03
    -15.977  0.1960E+02  0.1154E+03
    -15.963  0.1938E+02  0.1157E+03
    -15.949  0.1915E+02  0.1159E+03
    -15.936  0.1893E+02  0.1162E+03
    -15.922  0.1872E+02  0.1165E+03
    -15.908  0.1852E+02  0.1167E+03
    -15.894  0.1834E+02  0.1170E+03
    -15.881  0.1818E+02  0.1172E+03
    -15.867  0.1805E+02  0.1175E+03
    -15.853  0.1794E+02  0.1177E+03
    -15.839  0.1786E+02  0.1180E+03
    -15.826  0.1782E+02  0.1182E+03
    -15.812  0.1780E+02  0.1184E+03
    -15.798  0.1781E+02  0.1187E+03
    -15.784  0.1785E+02  0.1189E+03
    -15.770  0.1791E+02  0.1192E+03
    -15.757  0.1799E+02  0.1194E+03
    -15.743  0.1809E+02  0.1197E+03
    -15.729  0.1821E+02  0.1199E+03
    -15.715  0.1833E+02  0.1202E+03
    -15.702  0.1846E+02  0.1204E+03
    -15.688  0.1859E+02  0.1207E+03
    -15.674  0.1873E+02  0.1210E+03
    -15.660  0.1886E+02  0.1212E+03
    -15.647  0.1899E+02  0.1215E+03
    -15.633  0.1912E+02  0.1217E+03
    -15.619  0.1925E+02  0.1220E+03
    -15.605  0.1937E+02  0.1223E+03
    -15.591  0.1949E+02  0.1225E+03
    -15.578  0.1961E+02  0.1228E+03
    -15.564  0.1973E+02  0.1231E+03
    -15.550  0.1984E+02  0.1234E+03
    -15.536  0.1995E+02  0.1236E+03
    -15.523  0.2007E+02  0.1239E+03
    -15.509  0.2018E+02  0.1242E+03
    -15.495  0.2030E+02  0.1245E+03
    -15.481  0.2042E+02  0.1247E+03
    -15.468  0.2054E+02  0.1250E+03
    -15.454  0.2066E+02  0.1253E+03
    -15.440  0.2079E+02  0.1256E+03
    -15.426  0.2092E+02  0.1259E+03
    -15.412  0.2105E+02  0.1262E+03
    -15.399  0.2118E+02  0.1265E+03
    -15.385  0.2132E+02  0.1268E+03
    -15.371  0.2145E+02  0.1271E+03
    -15.357  0.2159E+02  0.1274E+03
    -15.344  0.2172E+02  0.1276E+03
    -15.330  0.2185E+02  0.1280E+03
    -15.316  0.2197E+02  0.1283E+03
    -15.302  0.2208E+02  0.1286E+03
    -15.289  0.2219E+02  0.1289E+03
    -15.275  0.2228E+02  0.1292E+03
    -15.261  0.2237E+02  0.1295E+03
    -15.247  0.2243E+02  0.1298E+03
    -15.233  0.2249E+02  0.1301E+03
    -15.220  0.2252E+02  0.1304E+03
    -15.206  0.2254E+02  0.1307E+03
    -15.192  0.2253E+02  0.1310E+03
    -15.178  0.2251E+02  0.1313E+03
    -15.165  0.2246E+02  0.1316E+03
    -15.151  0.2238E+02  0.1320E+03
    -15.137  0.2229E+02  0.1323E+03
    -15.123  0.2216E+02  0.1326E+03
    -15.110  0.2201E+02  0.1329E+03
    -15.096  0.2182E+02  0.1332E+03
    -15.082  0.2162E+02  0.1335E+03
    -15.068  0.2138E+02  0.1338E+03
    -15.054  0.2112E+02  0.1341E+03
    -15.041  0.2083E+02  0.1343E+03
    -15.027  0.2052E+02  0.1346E+03
    -15.013  0.2019E+02  0.1349E+03
    -14.999  0.1984E+02  0.1352E+03
    -14.986  0.1949E+02  0.1354E+03
    -14.972  0.1912E+02  0.1357E+03
    -14.958  0.1875E+02  0.1360E+03
    -14.944  0.1838E+02  0.1362E+03
    -14.931  0.1802E+02  0.1365E+03
    -14.917  0.1767E+02  0.1367E+03
    -14.903  0.1734E+02  0.1369E+03
    -14.889  0.1704E+02  0.1372E+03
    -14.875  0.1675E+02  0.1374E+03
    -14.862  0.1650E+02  0.1376E+03
    -14.848  0.1627E+02  0.1379E+03
    -14.834  0.1608E+02  0.1381E+03
    -14.820  0.1592E+02  0.1383E+03
    -14.807  0.1580E+02  0.1385E+03
    -14.793  0.1571E+02  0.1387E+03
    -14.779  0.1565E+02  0.1390E+03
    -14.765  0.1562E+02  0.1392E+03
    -14.752  0.1561E+02  0.1394E+03
    -14.738  0.1563E+02  0.1396E+03
    -14.724  0.1567E+02  0.1398E+03
    -14.710  0.1574E+02  0.1400E+03
    -14.696  0.1582E+02  0.1402E+03
    -14.683  0.1591E+02  0.1405E+03
    -14.669  0.1601E+02  0.1407E+03
    -14.655  0.1613E+02  0.1409E+03
    -14.641  0.1626E+02  0.1411E+03
    -14.628  0.1639E+02  0.1414E+03
    -14.614  0.1653E+02  0.1416E+03
    -14.600  0.1667E+02  0.1418E+03
    -14.586  0.1681E+02  0.1420E+03
    -14.573  0.1696E+02  0.1423E+03
    -14.559  0.1711E+02  0.1425E+03
    -14.545  0.1726E+02  0.1428E+03
    -14.531  0.1741E+02  0.1430E+03
    -14.517  0.1755E+02  0.1432E+03
    -14.504  0.1769E+02  0.1435E+03
    -14.490  0.1782E+02  0.1437E+03
    -14.476  0.1795E+02  0.1440E+03
    -14.462  0.1807E+02  0.1442E+03
    -14.449  0.1817E+02  0.1445E+03
    -14.435  0.1827E+02  0.1447E+03
    -14.421  0.1836E+02  0.1450E+03
    -14.407  0.1843E+02  0.1452E+03
    -14.394  0.1849E+02  0.1455E+03
    -14.380  0.1854E+02  0.1457E+03
    -14.366  0.1857E+02  0.1460E+03
    -14.352  0.1860E+02  0.1463E+03
    -14.338  0.1861E+02  0.1465E+03
    -14.325  0.1861E+02  0.1468E+03
    -14.311  0.1860E+02  0.1470E+03
    -14.297  0.1859E+02  0.1473E+03
    -14.283  0.1856E+02  0.1475E+03
    -14.270  0.1852E+02  0.1478E+03
    -14.256  0.1848E+02  0.1480E+03
    -14.242  0.1843E+02  0.1483E+03
    -14.228  0.1838E+02  0.1485E+03
    -14.215  0.1832E+02  0.1488E+03
    -14.201  0.1825E+02  0.1491E+03
    -14.187  0.1818E+02  0.1493E+03
    -14.173  0.1811E+02  0.1496E+03
    -14.159  0.1804E+02  0.1498E+03
    -14.146  0.1797E+02  0.1500E+03
    -14.132  0.1790E+02  0.1503E+03
    -14.118  0.1784E+02  0.1505E+03
    -14.104  0.1778E+02  0.1508E+03
    -14.091  0.1772E+02  0.1510E+03
    -14.077  0.1768E+02  0.1513E+03
    -14.063  0.1764E+02  0.1515E+03
    -14.049  0.1761E+02  0.1518E+03
    -14.036  0.1759E+02  0.1520E+03
    -14.022  0.1758E+02  0.1522E+03
    -14.008  0.1758E+02  0.1525E+03
    -13.994  0.1759E+02  0.1527E+03
    -13.980  0.1761E+02  0.1530E+03
    -13.967  0.1765E+02  0.1532E+03
    -13.953  0.1769E+02  0.1535E+03
    -13.939  0.1775E+02  0.1537E+03
    -13.925  0.1782E+02  0.1539E+03
    -13.912  0.1790E+02  0.1542E+03
    -13.898  0.1799E+02  0.1544E+03
    -13.884  0.1809E+02  0.1547E+03
    -13.870  0.1820E+02  0.1549E+03
    -13.857  0.1832E+02  0.1552E+03
    -13.843  0.1844E+02  0.1554E+03
    -13.829  0.1857E+02  0.1557E+03
    -13.815  0.1870E+02  0.1560E+03
    -13.801  0.1883E+02  0.1562E+03
    -13.788  0.1896E+02  0.1565E+03
    -13.774  0.1908E+02  0.1567E+03
    -13.760  0.1919E+02  0.1570E+03
    -13.746  0.1929E+02  0.1573E+03
    -13.733  0.1938E+02  0.1575E+03
    -13.719  0.1945E+02  0.1578E+03
    -13.705  0.1951E+02  0.1581E+03
    -13.691  0.1954E+02  0.1583E+03
    -13.678  0.1956E+02  0.1586E+03
    -13.664  0.1955E+02  0.1589E+03
    -13.650  0.1952E+02  0.1591E+03
    -13.636  0.1948E+02  0.1594E+03