 248 248   0   0
  0.2661629E+02  0.2982000E-08  0.2213561E-08  0.1000000E-08  0.5000000E-15
  1.000000000000000E-004
  CAR 
 unknown system                          
      5.99265160    -25.31696426 2000     -1.11041513      1.00000000
    -25.317  0.0000E+00  0.0000E+00
    -25.301  0.0000E+00  0.0000E+00
    -25.286  0.0000E+00  0.0000E+00
    -25.270  0.0000E+00  0.0000E+00
    -25.254  0.0000E+00  0.0000E+00
    -25.239  0.0000E+00  0.0000E+00
    -25.223  0.0000E+00  0.0000E+00
    -25.207  0.0000E+00  0.0000E+00
    -25.192  0.0000E+00  0.0000E+00
    -25.176  0.0000E+00  0.0000E+00
    -25.160  0.0000E+00  0.0000E+00
    -25.145  0.0000E+00  0.0000E+00
    -25.129  0.0000E+00  0.0000E+00
    -25.113  0.0000E+00  0.0000E+00
    -25.098  0.0000E+00  0.0000E+00
    -25.082  0.0000E+00  0.0000E+00
    -25.066  0.0000E+00  0.0000E+00
    -25.051  0.0000E+00  0.0000E+00
    -25.035  0.0000E+00  0.0000E+00
    -25.019  0.0000E+00  0.0000E+00
    -25.004  0.0000E+00  0.0000E+00
    -24.988  0.0000E+00  0.0000E+00
    -24.972  0.0000E+00  0.0000E+00
    -24.957  0.0000E+00  0.0000E+00
    -24.941  0.0000E+00  0.0000E+00
    -24.925  0.0000E+00  0.0000E+00
    -24.910  0.0000E+00  0.0000E+00
    -24.894  0.0000E+00  0.0000E+00
    -24.878  0.0000E+00  0.0000E+00
    -24.863  0.0000E+00  0.0000E+00
    -24.847  0.0000E+00  0.0000E+00
    -24.831  0.0000E+00  0.0000E+00
    -24.816  0.0000E+00  0.0000E+00
    -24.800  0.0000E+00  0.0000E+00
    -24.784  0.0000E+00  0.0000E+00
    -24.769  0.0000E+00  0.0000E+00
    -24.753  0.0000E+00  0.0000E+00
    -24.737  0.0000E+00  0.0000E+00
    -24.722  0.0000E+00  0.0000E+00
    -24.706  0.0000E+00  0.0000E+00
    -24.690  0.0000E+00  0.0000E+00
    -24.675  0.0000E+00  0.0000E+00
    -24.659  0.0000E+00  0.0000E+00
    -24.643  0.0000E+00  0.0000E+00
    -24.628  0.0000E+00  0.0000E+00
    -24.612  0.0000E+00  0.0000E+00
    -24.596  0.0000E+00  0.0000E+00
    -24.581  0.0000E+00  0.0000E+00
    -24.565  0.0000E+00  0.0000E+00
    -24.549  0.0000E+00  0.0000E+00
    -24.534  0.0000E+00  0.0000E+00
    -24.518  0.0000E+00  0.0000E+00
    -24.503  0.0000E+00  0.0000E+00
    -24.487  0.7088E-14  0.1110E-15
    -24.471  0.1418E-13  0.3331E-15
    -24.456  0.2835E-13  0.7772E-15
    -24.440  0.7797E-13  0.1998E-14
    -24.424  0.1843E-12  0.4885E-14
    -24.409  0.4395E-12  0.1177E-13
    -24.393  0.1028E-11  0.2787E-13
    -24.377  0.2389E-11  0.6528E-13
    -24.362  0.5472E-11  0.1510E-12
    -24.346  0.1239E-10  0.3451E-12
    -24.330  0.2771E-10  0.7790E-12
    -24.315  0.6122E-10  0.1738E-11
    -24.299  0.1336E-09  0.3831E-11
    -24.283  0.2881E-09  0.8343E-11
    -24.268  0.6135E-09  0.1795E-10
    -24.252  0.1291E-08  0.3816E-10
    -24.236  0.2682E-08  0.8017E-10
    -24.221  0.5505E-08  0.1664E-09
    -24.205  0.1116E-07  0.3412E-09
    -24.189  0.2236E-07  0.6915E-09
    -24.174  0.4424E-07  0.1384E-08
    -24.158  0.8648E-07  0.2739E-08
    -24.142  0.1670E-06  0.5354E-08
    -24.127  0.3185E-06  0.1034E-07
    -24.111  0.6000E-06  0.1974E-07
    -24.095  0.1117E-05  0.3723E-07
    -24.080  0.2053E-05  0.6938E-07
    -24.064  0.3728E-05  0.1278E-06
    -24.048  0.6688E-05  0.2325E-06
    -24.033  0.1185E-04  0.4181E-06
    -24.017  0.2074E-04  0.7431E-06
    -24.001  0.3587E-04  0.1305E-05
    -23.986  0.6127E-04  0.2265E-05
    -23.970  0.1034E-03  0.3884E-05
    -23.954  0.1723E-03  0.6583E-05
    -23.939  0.2837E-03  0.1103E-04
    -23.923  0.4614E-03  0.1825E-04
    -23.907  0.7413E-03  0.2986E-04
    -23.892  0.1176E-02  0.4829E-04
    -23.876  0.1844E-02  0.7718E-04
    -23.860  0.2856E-02  0.1219E-03
    -23.845  0.4369E-02  0.1903E-03
    -23.829  0.6602E-02  0.2938E-03
    -23.813  0.9856E-02  0.4481E-03
    -23.798  0.1453E-01  0.6757E-03
    -23.782  0.2117E-01  0.1007E-02
    -23.766  0.3046E-01  0.1484E-02
    -23.751  0.4329E-01  0.2162E-02
    -23.735  0.6078E-01  0.3114E-02
    -23.719  0.8429E-01  0.4434E-02
    -23.704  0.1155E+00  0.6243E-02
    -23.688  0.1563E+00  0.8691E-02
    -23.672  0.2089E+00  0.1196E-01
    -23.657  0.2759E+00  0.1628E-01
    -23.641  0.3599E+00  0.2192E-01
    -23.625  0.4638E+00  0.2919E-01
    -23.610  0.5903E+00  0.3843E-01
    -23.594  0.7423E+00  0.5006E-01
    -23.578  0.9220E+00  0.6450E-01
    -23.563  0.1131E+01  0.8222E-01
    -23.547  0.1371E+01  0.1037E+00
    -23.531  0.1642E+01  0.1294E+00
    -23.516  0.1941E+01  0.1598E+00
    -23.500  0.2268E+01  0.1953E+00
    -23.484  0.2617E+01  0.2363E+00
    -23.469  0.2984E+01  0.2831E+00
    -23.453  0.3360E+01  0.3357E+00
    -23.437  0.3738E+01  0.3942E+00
    -23.422  0.4107E+01  0.4586E+00
    -23.406  0.4458E+01  0.5284E+00
    -23.390  0.4780E+01  0.6033E+00
    -23.375  0.5063E+01  0.6826E+00
    -23.359  0.5298E+01  0.7656E+00
    -23.343  0.5475E+01  0.8513E+00
    -23.328  0.5590E+01  0.9389E+00
    -23.312  0.5638E+01  0.1027E+01
    -23.296  0.5617E+01  0.1115E+01
    -23.281  0.5527E+01  0.1202E+01
    -23.265  0.5373E+01  0.1286E+01
    -23.249  0.5160E+01  0.1367E+01
    -23.234  0.4894E+01  0.1443E+01
    -23.218  0.4586E+01  0.1515E+01
    -23.203  0.4245E+01  0.1582E+01
    -23.187  0.3882E+01  0.1642E+01
    -23.171  0.3506E+01  0.1697E+01
    -23.156  0.3128E+01  0.1746E+01
    -23.140  0.2757E+01  0.1790E+01
    -23.124  0.2400E+01  0.1827E+01
    -23.109  0.2064E+01  0.1859E+01
    -23.093  0.1754E+01  0.1887E+01
    -23.077  0.1472E+01  0.1910E+01
    -23.062  0.1220E+01  0.1929E+01
    -23.046  0.9990E+00  0.1945E+01
    -23.030  0.8081E+00  0.1957E+01
    -23.015  0.6457E+00  0.1968E+01
    -22.999  0.5097E+00  0.1975E+01
    -22.983  0.3974E+00  0.1982E+01
    -22.968  0.3061E+00  0.1987E+01
    -22.952  0.2329E+00  0.1990E+01
    -22.936  0.1750E+00  0.1993E+01
    -22.921  0.1299E+00  0.1995E+01
    -22.905  0.9529E-01  0.1996E+01
    -22.889  0.6903E-01  0.1998E+01
    -22.874  0.4940E-01  0.1998E+01
    -22.858  0.3492E-01  0.1999E+01
    -22.842  0.2438E-01  0.1999E+01
    -22.827  0.1682E-01  0.1999E+01
    -22.811  0.1146E-01  0.2000E+01
    -22.795  0.7714E-02  0.2000E+01
    -22.780  0.5129E-02  0.2000E+01
    -22.764  0.3369E-02  0.2000E+01
    -22.748  0.2186E-02  0.2000E+01
    -22.733  0.1401E-02  0.2000E+01
    -22.717  0.8868E-03  0.2000E+01
    -22.701  0.5546E-03  0.2000E+01
    -22.686  0.3426E-03  0.2000E+01
    -22.670  0.2091E-03  0.2000E+01
    -22.654  0.1261E-03  0.2000E+01
    -22.639  0.7514E-04  0.2000E+01
    -22.623  0.4433E-04  0.2000E+01
    -22.607  0.2600E-04  0.2000E+01
    -22.592  0.1539E-04  0.2000E+01
    -22.576  0.9587E-05  0.2000E+01
    -22.560  0.6950E-05  0.2000E+01
    -22.545  0.6709E-05  0.2000E+01
    -22.529  0.8794E-05  0.2000E+01
    -22.513  0.1381E-04  0.2000E+01
    -22.498  0.2320E-04  0.2000E+01
    -22.482  0.3955E-04  0.2000E+01
    -22.466  0.6717E-04  0.2000E+01
    -22.451  0.1130E-03  0.2000E+01
    -22.435  0.1878E-03  0.2000E+01
    -22.419  0.3086E-03  0.2000E+01
    -22.404  0.5008E-03  0.2000E+01
    -22.388  0.8028E-03  0.2000E+01
    -22.372  0.1271E-02  0.2000E+01
    -22.357  0.1989E-02  0.2000E+01
    -22.341  0.3074E-02  0.2000E+01
    -22.325  0.4692E-02  0.2000E+01
    -22.310  0.7076E-02  0.2000E+01
    -22.294  0.1054E-01  0.2000E+01
    -22.278  0.1551E-01  0.2001E+01
    -22.263  0.2254E-01  0.2001E+01
    -22.247  0.3237E-01  0.2002E+01
    -22.231  0.4591E-01  0.2002E+01
    -22.216  0.6432E-01  0.2003E+01
    -22.200  0.8902E-01  0.2005E+01
    -22.184  0.1217E+00  0.2007E+01
    -22.169  0.1644E+00  0.2009E+01
    -22.153  0.2193E+00  0.2013E+01
    -22.137  0.2890E+00  0.2017E+01
    -22.122  0.3762E+00  0.2023E+01
    -22.106  0.4837E+00  0.2031E+01
    -22.090  0.6144E+00  0.2040E+01
    -22.075  0.7710E+00  0.2052E+01
    -22.059  0.9556E+00  0.2067E+01
    -22.043  0.1170E+01  0.2086E+01
    -22.028  0.1415E+01  0.2108E+01
    -22.012  0.1691E+01  0.2134E+01
    -21.996  0.1995E+01  0.2166E+01
    -21.981  0.2326E+01  0.2202E+01
    -21.965  0.2679E+01  0.2244E+01
    -21.949  0.3048E+01  0.2292E+01
    -21.934  0.3425E+01  0.2345E+01
    -21.918  0.3802E+01  0.2405E+01
    -21.903  0.4169E+01  0.2470E+01
    -21.887  0.4516E+01  0.2541E+01
    -21.871  0.4832E+01  0.2617E+01
    -21.856  0.5107E+01  0.2697E+01
    -21.840  0.5332E+01  0.2780E+01
    -21.824  0.5500E+01  0.2866E+01
    -21.809  0.5603E+01  0.2954E+01
    -21.793  0.5639E+01  0.3042E+01
    -21.777  0.5607E+01  0.3130E+01
    -21.762  0.5506E+01  0.3216E+01
    -21.746  0.5342E+01  0.3300E+01
    -21.730  0.5120E+01  0.3380E+01
    -21.715  0.4848E+01  0.3456E+01
    -21.699  0.4536E+01  0.3527E+01
    -21.683  0.4193E+01  0.3593E+01
    -21.668  0.3831E+01  0.3653E+01
    -21.652  0.3460E+01  0.3707E+01
    -21.636  0.3092E+01  0.3755E+01
    -21.621  0.2735E+01  0.3798E+01
    -21.605  0.2398E+01  0.3836E+01
    -21.589  0.2089E+01  0.3869E+01
    -21.574  0.1814E+01  0.3897E+01
    -21.558  0.1579E+01  0.3922E+01
    -21.542  0.1387E+01  0.3943E+01
    -21.527  0.1242E+01  0.3963E+01
    -21.511  0.1147E+01  0.3981E+01
    -21.495  0.1104E+01  0.3998E+01
    -21.480  0.1116E+01  0.4016E+01
    -21.464  0.1185E+01  0.4034E+01
    -21.448  0.1313E+01  0.4055E+01
    -21.433  0.1501E+01  0.4078E+01
    -21.417  0.1753E+01  0.4106E+01
    -21.401  0.2068E+01  0.4138E+01
    -21.386  0.2449E+01  0.4176E+01
    -21.370  0.2895E+01  0.4222E+01
    -21.354  0.3405E+01  0.4275E+01
    -21.339  0.3976E+01  0.4337E+01
    -21.323  0.4605E+01  0.4410E+01
    -21.307  0.5286E+01  0.4492E+01
    -21.292  0.6013E+01  0.4587E+01
    -21.276  0.6776E+01  0.4693E+01
    -21.260  0.7565E+01  0.4811E+01
    -21.245  0.8371E+01  0.4942E+01
    -21.229  0.9183E+01  0.5086E+01
    -21.213  0.9990E+01  0.5243E+01
    -21.198  0.1078E+02  0.5411E+01
    -21.182  0.1155E+02  0.5592E+01
    -21.166  0.1230E+02  0.5785E+01
    -21.151  0.1301E+02  0.5989E+01
    -21.135  0.1368E+02  0.6203E+01
    -21.119  0.1433E+02  0.6427E+01
    -21.104  0.1495E+02  0.6662E+01
    -21.088  0.1554E+02  0.6905E+01
    -21.072  0.1612E+02  0.7157E+01
    -21.057  0.1669E+02  0.7419E+01
    -21.041  0.1727E+02  0.7689E+01
    -21.025  0.1786E+02  0.7969E+01
    -21.010  0.1846E+02  0.8258E+01
    -20.994  0.1909E+02  0.8557E+01
    -20.978  0.1975E+02  0.8867E+01
    -20.963  0.2044E+02  0.9187E+01
    -20.947  0.2116E+02  0.9518E+01
    -20.931  0.2190E+02  0.9861E+01
    -20.916  0.2267E+02  0.1022E+02
    -20.900  0.2345E+02  0.1058E+02
    -20.884  0.2424E+02  0.1096E+02
    -20.869  0.2504E+02  0.1136E+02
    -20.853  0.2583E+02  0.1176E+02
    -20.837  0.2661E+02  0.1218E+02
    -20.822  0.2737E+02  0.1261E+02
    -20.806  0.2810E+02  0.1305E+02
    -20.790  0.2881E+02  0.1350E+02
    -20.775  0.2948E+02  0.1396E+02
    -20.759  0.3012E+02  0.1443E+02
    -20.743  0.3071E+02  0.1491E+02
    -20.728  0.3127E+02  0.1540E+02
    -20.712  0.3178E+02  0.1590E+02
    -20.696  0.3226E+02  0.1640E+02
    -20.681  0.3269E+02  0.1692E+02
    -20.665  0.3307E+02  0.1743E+02
    -20.649  0.3342E+02  0.1796E+02
    -20.634  0.3372E+02  0.1849E+02
    -20.618  0.3398E+02  0.1902E+02
    -20.603  0.3421E+02  0.1955E+02
    -20.587  0.3439E+02  0.2009E+02
    -20.571  0.3454E+02  0.2063E+02
    -20.556  0.3466E+02  0.2118E+02
    -20.540  0.3475E+02  0.2172E+02
    -20.524  0.3482E+02  0.2227E+02
    -20.509  0.3488E+02  0.2281E+02
    -20.493  0.3492E+02  0.2336E+02
    -20.477  0.3497E+02  0.2391E+02
    -20.462  0.3501E+02  0.2446E+02
    -20.446  0.3506E+02  0.2500E+02
    -20.430  0.3513E+02  0.2555E+02
    -20.415  0.3521E+02  0.2611E+02
    -20.399  0.3531E+02  0.2666E+02
    -20.383  0.3543E+02  0.2721E+02
    -20.368  0.3557E+02  0.2777E+02
    -20.352  0.3572E+02  0.2833E+02
    -20.336  0.3588E+02  0.2889E+02
    -20.321  0.3605E+02  0.2946E+02
    -20.305  0.3621E+02  0.3002E+02
    -20.289  0.3636E+02  0.3059E+02
    -20.274  0.3650E+02  0.3117E+02
    -20.258  0.3661E+02  0.3174E+02
    -20.242  0.3669E+02  0.3231E+02
    -20.227  0.3674E+02  0.3289E+02
    -20.211  0.3675E+02  0.3346E+02
    -20.195  0.3673E+02  0.3404E+02
    -20.180  0.3667E+02  0.3461E+02
    -20.164  0.3658E+02  0.3519E+02
    -20.148  0.3647E+02  0.3576E+02
    -20.133  0.3634E+02  0.3633E+02
    -20.117  0.3620E+02  0.3690E+02
    -20.101  0.3606E+02  0.3746E+02
    -20.086  0.3591E+02  0.3802E+02
    -20.070  0.3578E+02  0.3858E+02
    -20.054  0.3566E+02  0.3914E+02
    -20.039  0.3556E+02  0.3970E+02
    -20.023  0.3549E+02  0.4025E+02
    -20.007  0.3545E+02  0.4081E+02
    -19.992  0.3543E+02  0.4136E+02
    -19.976  0.3544E+02  0.4192E+02
    -19.960  0.3549E+02  0.4248E+02
    -19.945  0.3556E+02  0.4303E+02
    -19.929  0.3565E+02  0.4359E+02
    -19.913  0.3576E+02  0.4415E+02
    -19.898  0.3590E+02  0.4471E+02
    -19.882  0.3605E+02  0.4528E+02
    -19.866  0.3620E+02  0.4584E+02
    -19.851  0.3637E+02  0.4641E+02
    -19.835  0.3654E+02  0.4699E+02
    -19.819  0.3670E+02  0.4756E+02
    -19.804  0.3686E+02  0.4814E+02
    -19.788  0.3702E+02  0.4872E+02
    -19.772  0.3716E+02  0.4930E+02
    -19.757  0.3728E+02  0.4988E+02
    -19.741  0.3739E+02  0.5047E+02
    -19.725  0.3749E+02  0.5106E+02
    -19.710  0.3756E+02  0.5165E+02
    -19.694  0.3761E+02  0.5223E+02
    -19.678  0.3764E+02  0.5282E+02
    -19.663  0.3765E+02  0.5341E+02
    -19.647  0.3764E+02  0.5400E+02
    -19.631  0.3762E+02  0.5459E+02
    -19.616  0.3757E+02  0.5518E+02
    -19.600  0.3752E+02  0.5577E+02
    -19.584  0.3745E+02  0.5636E+02
    -19.569  0.3737E+02  0.5694E+02
    -19.553  0.3728E+02  0.5752E+02
    -19.537  0.3719E+02  0.5811E+02
    -19.522  0.3710E+02  0.5869E+02
    -19.506  0.3701E+02  0.5927E+02
    -19.490  0.3693E+02  0.5985E+02
    -19.475  0.3686E+02  0.6042E+02
    -19.459  0.3679E+02  0.6100E+02
    -19.443  0.3674E+02  0.6158E+02
    -19.428  0.3671E+02  0.6215E+02
    -19.412  0.3669E+02  0.6272E+02
    -19.396  0.3669E+02  0.6330E+02
    -19.381  0.3671E+02  0.6387E+02
    -19.365  0.3674E+02  0.6445E+02
    -19.349  0.3679E+02  0.6503E+02
    -19.334  0.3686E+02  0.6560E+02
    -19.318  0.3694E+02  0.6618E+02
    -19.303  0.3703E+02  0.6676E+02
    -19.287  0.3714E+02  0.6734E+02
    -19.271  0.3726E+02  0.6793E+02
    -19.256  0.3739E+02  0.6851E+02
    -19.240  0.3753E+02  0.6910E+02
    -19.224  0.3767E+02  0.6969E+02
    -19.209  0.3783E+02  0.7028E+02
    -19.193  0.3798E+02  0.7088E+02
    -19.177  0.3815E+02  0.7148E+02
    -19.162  0.3831E+02  0.7208E+02
    -19.146  0.3848E+02  0.7268E+02
    -19.130  0.3864E+02  0.7328E+02
    -19.115  0.3880E+02  0.7389E+02
    -19.099  0.3896E+02  0.7450E+02
    -19.083  0.3911E+02  0.7511E+02
    -19.068  0.3925E+02  0.7573E+02
    -19.052  0.3938E+02  0.7635E+02
    -19.036  0.3949E+02  0.7696E+02
    -19.021  0.3958E+02  0.7758E+02
    -19.005  0.3966E+02  0.7821E+02
    -18.989  0.3972E+02  0.7883E+02
    -18.974  0.3975E+02  0.7945E+02
    -18.958  0.3976E+02  0.8007E+02
    -18.942  0.3974E+02  0.8069E+02
    -18.927  0.3970E+02  0.8132E+02
    -18.911  0.3963E+02  0.8194E+02
    -18.895  0.3954E+02  0.8256E+02
    -18.880  0.3943E+02  0.8317E+02
    -18.864  0.3929E+02  0.8379E+02
    -18.848  0.3915E+02  0.8440E+02
    -18.833  0.3899E+02  0.8501E+02
    -18.817  0.3882E+02  0.8562E+02
    -18.801  0.3865E+02  0.8623E+02
    -18.786  0.3848E+02  0.8683E+02
    -18.770  0.3831E+02  0.8743E+02
    -18.754  0.3816E+02  0.8803E+02
    -18.739  0.3802E+02  0.8862E+02
    -18.723  0.3790E+02  0.8922E+02
    -18.707  0.3780E+02  0.8981E+02
    -18.692  0.3773E+02  0.9040E+02
    -18.676  0.3768E+02  0.9099E+02
    -18.660  0.3766E+02  0.9158E+02
    -18.645  0.3767E+02  0.9217E+02
    -18.629  0.3770E+02  0.9276E+02
    -18.613  0.3776E+02  0.9335E+02
    -18.598  0.3785E+02  0.9394E+02
    -18.582  0.3796E+02  0.9454E+02
    -18.566  0.3809E+02  0.9513E+02
    -18.551  0.3824E+02  0.9573E+02
    -18.535  0.3840E+02  0.9634E+02
    -18.519  0.3856E+02  0.9694E+02
    -18.504  0.3873E+02  0.9755E+02
    -18.488  0.3890E+02  0.9816E+02
    -18.472  0.3907E+02  0.9877E+02
    -18.457  0.3922E+02  0.9938E+02
    -18.441  0.3935E+02  0.1000E+03
    -18.425  0.3947E+02  0.1006E+03
    -18.410  0.3956E+02  0.1012E+03
    -18.394  0.3962E+02  0.1019E+03
    -18.378  0.3966E+02  0.1025E+03
    -18.363  0.3967E+02  0.1031E+03
    -18.347  0.3964E+02  0.1037E+03
    -18.331  0.3959E+02  0.1043E+03
    -18.316  0.3952E+02  0.1050E+03
    -18.300  0.3942E+02  0.1056E+03
    -18.284  0.3931E+02  0.1062E+03
    -18.269  0.3918E+02  0.1068E+03
    -18.253  0.3904E+02  0.1074E+03
    -18.237  0.3891E+02  0.1080E+03
    -18.222  0.3878E+02  0.1086E+03
    -18.206  0.3865E+02  0.1092E+03
    -18.190  0.3855E+02  0.1098E+03
    -18.175  0.3846E+02  0.1104E+03
    -18.159  0.3839E+02  0.1110E+03
    -18.143  0.3834E+02  0.1116E+03
    -18.128  0.3833E+02  0.1122E+03
    -18.112  0.3834E+02  0.1128E+03
    -18.096  0.3837E+02  0.1134E+03
    -18.081  0.3842E+02  0.1141E+03
    -18.065  0.3850E+02  0.1147E+03
    -18.049  0.3859E+02  0.1153E+03
    -18.034  0.3870E+02  0.1159E+03
    -18.018  0.3881E+02  0.1165E+03
    -18.003  0.3893E+02  0.1171E+03
    -17.987  0.3904E+02  0.1177E+03
    -17.971  0.3915E+02  0.1183E+03
    -17.956  0.3924E+02  0.1189E+03
    -17.940  0.3932E+02  0.1195E+03
    -17.924  0.3938E+02  0.1202E+03
    -17.909  0.3943E+02  0.1208E+03
    -17.893  0.3946E+02  0.1214E+03
    -17.877  0.3946E+02  0.1220E+03
    -17.862  0.3945E+02  0.1226E+03
    -17.846  0.3942E+02  0.1232E+03
    -17.830  0.3938E+02  0.1239E+03
    -17.815  0.3933E+02  0.1245E+03
    -17.799  0.3927E+02  0.1251E+03
    -17.783  0.3920E+02  0.1257E+03
    -17.768  0.3913E+02  0.1263E+03
    -17.752  0.3906E+02  0.1269E+03
    -17.736  0.3899E+02  0.1275E+03
    -17.721  0.3892E+02  0.1281E+03
    -17.705  0.3886E+02  0.1288E+03
    -17.689  0.3879E+02  0.1294E+03
    -17.674  0.3874E+02  0.1300E+03
    -17.658  0.3869E+02  0.1306E+03
    -17.642  0.3864E+02  0.1312E+03
    -17.627  0.3860E+02  0.1318E+03
    -17.611  0.3858E+02  0.1324E+03
    -17.595  0.3856E+02  0.1330E+03
    -17.580  0.3856E+02  0.1336E+03
    -17.564  0.3857E+02  0.1342E+03
    -17.548  0.3859E+02  0.1348E+03
    -17.533  0.3864E+02  0.1354E+03
    -17.517  0.3870E+02  0.1360E+03
    -17.501  0.3879E+02  0.1366E+03
    -17.486  0.3889E+02  0.1372E+03
    -17.470  0.3901E+02  0.1378E+03
    -17.454  0.3916E+02  0.1385E+03
    -17.439  0.3931E+02  0.1391E+03
    -17.423  0.3948E+02  0.1397E+03
    -17.407  0.3966E+02  0.1403E+03
    -17.392  0.3984E+02  0.1409E+03
    -17.376  0.4002E+02  0.1416E+03
    -17.360  0.4019E+02  0.1422E+03
    -17.345  0.4035E+02  0.1428E+03
    -17.329  0.4050E+02  0.1435E+03
    -17.313  0.4063E+02  0.1441E+03
    -17.298  0.4074E+02  0.1447E+03
    -17.282  0.4083E+02  0.1454E+03
    -17.266  0.4090E+02  0.1460E+03
    -17.251  0.4096E+02  0.1467E+03
    -17.235  0.4100E+02  0.1473E+03
    -17.219  0.4103E+02  0.1479E+03
    -17.204  0.4105E+02  0.1486E+03
    -17.188  0.4107E+02  0.1492E+03
    -17.172  0.4110E+02  0.1499E+03
    -17.157  0.4114E+02  0.1505E+03
    -17.141  0.4118E+02  0.1512E+03
    -17.125  0.4124E+02  0.1518E+03
    -17.110  0.4132E+02  0.1525E+03
    -17.094  0.4141E+02  0.1531E+03
    -17.078  0.4152E+02  0.1538E+03
    -17.063  0.4164E+02  0.1544E+03
    -17.047  0.4178E+02  0.1551E+03
    -17.031  0.4191E+02  0.1557E+03
    -17.016  0.4205E+02  0.1564E+03
    -17.000  0.4218E+02  0.1570E+03
    -16.984  0.4230E+02  0.1577E+03
    -16.969  0.4241E+02  0.1584E+03
    -16.953  0.4250E+02  0.1590E+03
    -16.937  0.4257E+02  0.1597E+03
    -16.922  0.4262E+02  0.1604E+03
    -16.906  0.4265E+02  0.1610E+03
    -16.890  0.4266E+02  0.1617E+03
    -16.875  0.4264E+02  0.1624E+03
    -16.859  0.4261E+02  0.1630E+03
    -16.843  0.4255E+02  0.1637E+03
    -16.828  0.4249E+02  0.1644E+03
    -16.812  0.4241E+02  0.1650E+03
    -16.796  0.4233E+02  0.1657E+03
    -16.781  0.4224E+02  0.1664E+03
    -16.765  0.4215E+02  0.1670E+03
    -16.750  0.4206E+02  0.1677E+03
    -16.734  0.4197E+02  0.1683E+03
    -16.718  0.4189E+02  0.1690E+03
    -16.703  0.4182E+02  0.1696E+03
    -16.687  0.4176E+02  0.1703E+03
    -16.671  0.4171E+02  0.1710E+03
    -16.656  0.4167E+02  0.1716E+03
    -16.640  0.4166E+02  0.1723E+03
    -16.624  0.4167E+02  0.1729E+03
    -16.609  0.4170E+02  0.1736E+03
    -16.593  0.4176E+02  0.1742E+03
    -16.577  0.4184E+02  0.1749E+03
    -16.562  0.4196E+02  0.1755E+03
    -16.546  0.4212E+02  0.1762E+03
    -16.530  0.4230E+02  0.1769E+03
    -16.515  0.4251E+02  0.1775E+03
    -16.499  0.4275E+02  0.1782E+03
    -16.483  0.4301E+02  0.1789E+03
    -16.468  0.4328E+02  0.1795E+03
    -16.452  0.4357E+02  0.1802E+03
    -16.436  0.4385E+02  0.1809E+03
    -16.421  0.4413E+02  0.1816E+03
    -16.405  0.4440E+02  0.1823E+03
    -16.389  0.4464E+02  0.1830E+03
    -16.374  0.4485E+02  0.1837E+03
    -16.358  0.4501E+02  0.1844E+03
    -16.342  0.4514E+02  0.1851E+03
    -16.327  0.4521E+02  0.1858E+03
    -16.311  0.4522E+02  0.1865E+03
    -16.295  0.4518E+02  0.1872E+03
    -16.280  0.4508E+02  0.1879E+03
    -16.264  0.4493E+02  0.1886E+03
    -16.248  0.4472E+02  0.1893E+03
    -16.233  0.4448E+02  0.1900E+03
    -16.217  0.4419E+02  0.1907E+03
    -16.201  0.4387E+02  0.1914E+03
    -16.186  0.4353E+02  0.1921E+03
    -16.170  0.4318E+02  0.1928E+03
    -16.154  0.4283E+02  0.1934E+03
    -16.139  0.4248E+02  0.1941E+03
    -16.123  0.4215E+02  0.1948E+03
    -16.107  0.4184E+02  0.1954E+03
    -16.092  0.4155E+02  0.1961E+03
    -16.076  0.4130E+02  0.1967E+03
    -16.060  0.4108E+02  0.1974E+03
    -16.045  0.4089E+02  0.1980E+03
    -16.029  0.4074E+02  0.1986E+03
    -16.013  0.4062E+02  0.1993E+03
    -15.998  0.4053E+02  0.1999E+03
    -15.982  0.4048E+02  0.2006E+03
    -15.966  0.4045E+02  0.2012E+03
    -15.951  0.4045E+02  0.2018E+03
    -15.935  0.4047E+02  0.2025E+03
    -15.919  0.4051E+02  0.2031E+03
    -15.904  0.4057E+02  0.2037E+03
    -15.888  0.4064E+02  0.2044E+03
    -15.872  0.4072E+02  0.2050E+03
    -15.857  0.4081E+02  0.2056E+03
    -15.841  0.4090E+02  0.2063E+03
    -15.825  0.4099E+02  0.2069E+03
    -15.810  0.4109E+02  0.2076E+03
    -15.794  0.4117E+02  0.2082E+03
    -15.778  0.4124E+02  0.2089E+03
    -15.763  0.4130E+02  0.2095E+03
    -15.747  0.4134E+02  0.2101E+03
    -15.731  0.4135E+02  0.2108E+03
    -15.716  0.4134E+02  0.2114E+03
    -15.700  0.4129E+02  0.2121E+03
    -15.684  0.4122E+02  0.2127E+03
    -15.669  0.4111E+02  0.2134E+03
    -15.653  0.4096E+02  0.2140E+03
    -15.637  0.4078E+02  0.2147E+03
    -15.622  0.4057E+02  0.2153E+03
    -15.606  0.4033E+02  0.2159E+03
    -15.590  0.4006E+02  0.2166E+03
    -15.575  0.3977E+02  0.2172E+03
    -15.559  0.3945E+02  0.2178E+03
    -15.543  0.3912E+02  0.2184E+03
    -15.528  0.3877E+02  0.2190E+03
    -15.512  0.3841E+02  0.2196E+03
    -15.496  0.3804E+02  0.2202E+03
    -15.481  0.3766E+02  0.2208E+03
    -15.465  0.3727E+02  0.2214E+03
    -15.450  0.3688E+02  0.2220E+03
    -15.434  0.3648E+02  0.2225E+03
    -15.418  0.3608E+02  0.2231E+03
    -15.403  0.3568E+02  0.2237E+03
    -15.387  0.3527E+02  0.2242E+03
    -15.371  0.3487E+02  0.2248E+03
    -15.356  0.3447E+02  0.2253E+03
    -15.340  0.3407E+02  0.2258E+03
    -15.324  0.3369E+02  0.2264E+03
    -15.309  0.3331E+02  0.2269E+03
    -15.293  0.3295E+02  0.2274E+03
    -15.277  0.3261E+02  0.2279E+03
    -15.262  0.3228E+02  0.2284E+03
    -15.246  0.3198E+02  0.2289E+03
    -15.230  0.3170E+02  0.2294E+03
    -15.215  0.3145E+02  0.2299E+03
    -15.199  0.3123E+02  0.2304E+03
    -15.183  0.3104E+02  0.2309E+03
    -15.168  0.3087E+02  0.2314E+03
    -15.152  0.3073E+02  0.2318E+03
    -15.136  0.3062E+02  0.2323E+03
    -15.121  0.3052E+02  0.2328E+03
    -15.105  0.3045E+02  0.2333E+03
    -15.089  0.3040E+02  0.2338E+03
    -15.074  0.3037E+02  0.2342E+03
    -15.058  0.3034E+02  0.2347E+03
    -15.042  0.3034E+02  0.2352E+03
    -15.027  0.3034E+02  0.2357E+03
    -15.011  0.3035E+02  0.2361E+03
    -14.995  0.3038E+02  0.2366E+03
    -14.980  0.3042E+02  0.2371E+03
    -14.964  0.3047E+02  0.2376E+03
    -14.948  0.3053E+02  0.2380E+03
    -14.933  0.3061E+02  0.2385E+03
    -14.917  0.3070E+02  0.2390E+03
    -14.901  0.3081E+02  0.2395E+03
    -14.886  0.3094E+02  0.2400E+03
    -14.870  0.3107E+02  0.2405E+03
    -14.854  0.3123E+02  0.2409E+03
    -14.839  0.3139E+02  0.2414E+03
    -14.823  0.3157E+02  0.2419E+03
    -14.807  0.3176E+02  0.2424E+03
    -14.792  0.3195E+02  0.2429E+03
    -14.776  0.3215E+02  0.2434E+03
    -14.760  0.3236E+02  0.2439E+03
    -14.745  0.3256E+02  0.2444E+03
    -14.729  0.3277E+02  0.2450E+03
    -14.713  0.3297E+02  0.2455E+03
    -14.698  0.3317E+02  0.2460E+03
    -14.682  0.3337E+02  0.2465E+03
    -14.666  0.3356E+02  0.2470E+03
    -14.651  0.3376E+02  0.2476E+03
    -14.635  0.3395E+02  0.2481E+03
    -14.619  0.3414E+02  0.2486E+03
    -14.604  0.3434E+02  0.2492E+03
    -14.588  0.3454E+02  0.2497E+03
    -14.572  0.3474E+02  0.2503E+03
    -14.557  0.3495E+02  0.2508E+03
    -14.541  0.3516E+02  0.2514E+03
    -14.525  0.3538E+02  0.2519E+03
    -14.510  0.3561E+02  0.2525E+03
    -14.494  0.3585E+02  0.2530E+03
    -14.478  0.3608E+02  0.2536E+03
    -14.463  0.3633E+02  0.2542E+03
    -14.447  0.3658E+02  0.2547E+03
    -14.431  0.3683E+02  0.2553E+03
    -14.416  0.3708E+02  0.2559E+03
    -14.400  0.3734E+02  0.2565E+03
    -14.384  0.3759E+02  0.2571E+03
    -14.369  0.3784E+02  0.2577E+03
    -14.353  0.3809E+02  0.2583E+03
    -14.337  0.3833E+02  0.2589E+03
    -14.322  0.3857E+02  0.2595E+03
    -14.306  0.3880E+02  0.2601E+03
    -14.290  0.3904E+02  0.2607E+03
    -14.275  0.3926E+02  0.2613E+03
    -14.259  0.3948E+02  0.2619E+03
    -14.243  0.3970E+02  0.2625E+03
    -14.228  0.3991E+02  0.2632E+03
    -14.212  0.4013E+02  0.2638E+03
    -14.196  0.4034E+02  0.2644E+03
    -14.181  0.4056E+02  0.2651E+03
    -14.165  0.4078E+02  0.2657E+03
    -14.150  0.4101E+02  0.2663E+03
    -14.134  0.4126E+02  0.2670E+03
    -14.118  0.4153E+02  0.2676E+03
    -14.103  0.4181E+02  0.2683E+03
    -14.087  0.4213E+02  0.2690E+03
    -14.071  0.4247E+02  0.2696E+03
    -14.056  0.4283E+02  0.2703E+03
    -14.040  0.4323E+02  0.2710E+03
    -14.024  0.4365E+02  0.2716E+03
    -14.009  0.4410E+02  0.2723E+03
    -13.993  0.4457E+02  0.2730E+03
    -13.977  0.4505E+02  0.2737E+03
    -13.962  0.4554E+02  0.2745E+03
    -13.946  0.4601E+02  0.2752E+03
    -13.930  0.4648E+02  0.2759E+03
    -13.915  0.4692E+02  0.2766E+03
    -13.899  0.4732E+02  0.2774E+03
    -13.883  0.4767E+02  0.2781E+03
    -13.868  0.4797E+02  0.2789E+03
    -13.852  0.4820E+02  0.2796E+03
    -13.836  0.4836E+02  0.2804E+03
    -13.821  0.4844E+02  0.2811E+03
    -13.805  0.4845E+02  0.2819E+03
    -13.789  0.4838E+02  0.2827E+03
    -13.774  0.4823E+02  0.2834E+03
    -13.758  0.4802E+02  0.2842E+03
    -13.742  0.4775E+02  0.2849E+03
    -13.727  0.4743E+02  0.2857E+03
    -13.711  0.4706E+02  0.2864E+03
    -13.695  0.4667E+02  0.2871E+03
    -13.680  0.4626E+02  0.2879E+03
    -13.664  0.4585E+02  0.2886E+03
    -13.648  0.4543E+02  0.2893E+03
    -13.633  0.4503E+02  0.2900E+03
    -13.617  0.4464E+02  0.2907E+03
    -13.601  0.4428E+02  0.2914E+03
    -13.586  0.4395E+02  0.2921E+03
    -13.570  0.4364E+02  0.2928E+03
    -13.554  0.4337E+02  0.2934E+03
    -13.539  0.4312E+02  0.2941E+03
    -13.523  0.4291E+02  0.2948E+03
    -13.507  0.4272E+02  0.2955E+03
    -13.492  0.4256E+02  0.2961E+03
    -13.476  0.4242E+02  0.2968E+03
    -13.460  0.4231E+02  0.2974E+03
    -13.445  0.4222E+02  0.2981E+03
    -13.429  0.4214E+02  0.2988E+03
    -13.413  0.4209E+02  0.2994E+03
    -13.398  0.4204E+02  0.3001E+03
    -13.382  0.4201E+02  0.3007E+03
    -13.366  0.4198E+02  0.3014E+03
    -13.351  0.4196E+02  0.3021E+03
    -13.335  0.4193E+02  0.3027E+03
    -13.319  0.4189E+02  0.3034E+03
    -13.304  0.4184E+02  0.3040E+03
    -13.288  0.4178E+02  0.3047E+03
    -13.272  0.4168E+02  0.3053E+03
    -13.257  0.4157E+02  0.3060E+03
    -13.241  0.4142E+02  0.3066E+03
    -13.225  0.4125E+02  0.3073E+03
    -13.210  0.4106E+02  0.3079E+03
    -13.194  0.4084E+02  0.3086E+03
    -13.178  0.4061E+02  0.3092E+03
    -13.163  0.4037E+02  0.3098E+03
    -13.147  0.4013E+02  0.3105E+03
    -13.131  0.3990E+02  0.3111E+03
    -13.116  0.3969E+02  0.3117E+03
    -13.100  0.3950E+02  0.3123E+03
    -13.084  0.3934E+02  0.3129E+03
    -13.069  0.3923E+02  0.3136E+03
    -13.053  0.3916E+02  0.3142E+03
    -13.037  0.3913E+02  0.3148E+03
    -13.022  0.3915E+02  0.3154E+03
    -13.006  0.3921E+02  0.3160E+03
    -12.990  0.3931E+02  0.3166E+03
    -12.975  0.3945E+02  0.3172E+03
    -12.959  0.3962E+02  0.3179E+03
    -12.943  0.3982E+02  0.3185E+03
    -12.928  0.4003E+02  0.3191E+03
    -12.912  0.4026E+02  0.3197E+03
    -12.896  0.4050E+02  0.3204E+03
    -12.881  0.4073E+02  0.3210E+03
    -12.865  0.4096E+02  0.3217E+03
    -12.850  0.4118E+02  0.3223E+03
    -12.834  0.4139E+02  0.3230E+03
    -12.818  0.4157E+02  0.3236E+03
    -12.803  0.4172E+02  0.3243E+03
    -12.787  0.4184E+02  0.3249E+03
    -12.771  0.4192E+02  0.3256E+03
    -12.756  0.4197E+02  0.3262E+03
    -12.740  0.4197E+02  0.3269E+03
    -12.724  0.4193E+02  0.3275E+03
    -12.709  0.4184E+02  0.3282E+03
    -12.693  0.4172E+02  0.3288E+03
    -12.677  0.4155E+02  0.3295E+03
    -12.662  0.4135E+02  0.3301E+03
    -12.646  0.4112E+02  0.3308E+03
    -12.630  0.4086E+02  0.3314E+03
    -12.615  0.4059E+02  0.3321E+03
    -12.599  0.4030E+02  0.3327E+03
    -12.583  0.4001E+02  0.3333E+03
    -12.568  0.3973E+02  0.3339E+03
    -12.552  0.3945E+02  0.3346E+03
    -12.536  0.3919E+02  0.3352E+03
    -12.521  0.3894E+02  0.3358E+03
    -12.505  0.3871E+02  0.3364E+03
    -12.489  0.3851E+02  0.3370E+03
    -12.474  0.3833E+02  0.3376E+03
    -12.458  0.3817E+02  0.3382E+03
    -12.442  0.3804E+02  0.3388E+03
    -12.427  0.3794E+02  0.3394E+03
    -12.411  0.3786E+02  0.3400E+03
    -12.395  0.3781E+02  0.3406E+03