 190 190   0   0
  0.5026172E+02  0.2490528E-08  0.1917209E-08  0.2000000E-08  0.5000000E-15
  1.000000000000000E-004
  CAR 
 unknown system                          
      3.49512202    -24.18743451 2000     -3.53705657      1.00000000
    -24.187  0.0000E+00  0.0000E+00
    -24.174  0.0000E+00  0.0000E+00
    -24.160  0.0000E+00  0.0000E+00
    -24.146  0.0000E+00  0.0000E+00
    -24.132  0.0000E+00  0.0000E+00
    -24.118  0.0000E+00  0.0000E+00
    -24.104  0.0000E+00  0.0000E+00
    -24.090  0.0000E+00  0.0000E+00
    -24.077  0.0000E+00  0.0000E+00
    -24.063  0.0000E+00  0.0000E+00
    -24.049  0.0000E+00  0.0000E+00
    -24.035  0.0000E+00  0.0000E+00
    -24.021  0.0000E+00  0.0000E+00
    -24.007  0.0000E+00  0.0000E+00
    -23.994  0.0000E+00  0.0000E+00
    -23.980  0.0000E+00  0.0000E+00
    -23.966  0.0000E+00  0.0000E+00
    -23.952  0.0000E+00  0.0000E+00
    -23.938  0.0000E+00  0.0000E+00
    -23.924  0.0000E+00  0.0000E+00
    -23.910  0.0000E+00  0.0000E+00
    -23.897  0.0000E+00  0.0000E+00
    -23.883  0.0000E+00  0.0000E+00
    -23.869  0.0000E+00  0.0000E+00
    -23.855  0.0000E+00  0.0000E+00
    -23.841  0.0000E+00  0.0000E+00
    -23.827  0.0000E+00  0.0000E+00
    -23.814  0.0000E+00  0.0000E+00
    -23.800  0.0000E+00  0.0000E+00
    -23.786  0.0000E+00  0.0000E+00
    -23.772  0.0000E+00  0.0000E+00
    -23.758  0.0000E+00  0.0000E+00
    -23.744  0.0000E+00  0.0000E+00
    -23.730  0.0000E+00  0.0000E+00
    -23.717  0.0000E+00  0.0000E+00
    -23.703  0.0000E+00  0.0000E+00
    -23.689  0.0000E+00  0.0000E+00
    -23.675  0.0000E+00  0.0000E+00
    -23.661  0.0000E+00  0.0000E+00
    -23.647  0.0000E+00  0.0000E+00
    -23.634  0.0000E+00  0.0000E+00
    -23.620  0.0000E+00  0.0000E+00
    -23.606  0.0000E+00  0.0000E+00
    -23.592  0.0000E+00  0.0000E+00
    -23.578  0.0000E+00  0.0000E+00
    -23.564  0.0000E+00  0.0000E+00
    -23.550  0.0000E+00  0.0000E+00
    -23.537  0.0000E+00  0.0000E+00
    -23.523  0.0000E+00  0.0000E+00
    -23.509  0.0000E+00  0.0000E+00
    -23.495  0.0000E+00  0.0000E+00
    -23.481  0.0000E+00  0.0000E+00
    -23.467  0.0000E+00  0.0000E+00
    -23.453  0.0000E+00  0.0000E+00
    -23.440  0.0000E+00  0.0000E+00
    -23.426  0.0000E+00  0.0000E+00
    -23.412  0.0000E+00  0.0000E+00
    -23.398  0.0000E+00  0.0000E+00
    -23.384  0.0000E+00  0.0000E+00
    -23.370  0.2672E-14  0.3701E-16
    -23.357  0.5345E-14  0.1110E-15
    -23.343  0.1069E-13  0.2591E-15
    -23.329  0.1871E-13  0.5181E-15
    -23.315  0.4632E-13  0.1160E-14
    -23.301  0.1042E-12  0.2603E-14
    -23.287  0.2174E-12  0.5613E-14
    -23.273  0.4730E-12  0.1216E-13
    -23.260  0.1007E-11  0.2610E-13
    -23.246  0.2115E-11  0.5539E-13
    -23.232  0.4417E-11  0.1165E-12
    -23.218  0.9137E-11  0.2431E-12
    -23.204  0.1870E-10  0.5020E-12
    -23.190  0.3790E-10  0.1027E-11
    -23.177  0.7612E-10  0.2081E-11
    -23.163  0.1514E-09  0.4178E-11
    -23.149  0.2983E-09  0.8308E-11
    -23.135  0.5820E-09  0.1637E-10
    -23.121  0.1125E-08  0.3195E-10
    -23.107  0.2153E-08  0.6177E-10
    -23.093  0.4083E-08  0.1183E-09
    -23.080  0.7668E-08  0.2245E-09
    -23.066  0.1426E-07  0.4220E-09
    -23.052  0.2628E-07  0.7860E-09
    -23.038  0.4797E-07  0.1450E-08
    -23.024  0.8670E-07  0.2651E-08
    -23.010  0.1552E-06  0.4801E-08
    -22.996  0.2753E-06  0.8613E-08
    -22.983  0.4836E-06  0.1531E-07
    -22.969  0.8414E-06  0.2696E-07
    -22.955  0.1450E-05  0.4704E-07
    -22.941  0.2475E-05  0.8132E-07
    -22.927  0.4185E-05  0.1393E-06
    -22.913  0.7009E-05  0.2363E-06
    -22.900  0.1163E-04  0.3974E-06
    -22.886  0.1911E-04  0.6619E-06
    -22.872  0.3110E-04  0.1093E-05
    -22.858  0.5013E-04  0.1787E-05
    -22.844  0.8006E-04  0.2896E-05
    -22.830  0.1267E-03  0.4650E-05
    -22.816  0.1985E-03  0.7398E-05
    -22.803  0.3080E-03  0.1166E-04
    -22.789  0.4736E-03  0.1822E-04
    -22.775  0.7214E-03  0.2821E-04
    -22.761  0.1088E-02  0.4329E-04
    -22.747  0.1627E-02  0.6582E-04
    -22.733  0.2409E-02  0.9918E-04
    -22.720  0.3534E-02  0.1481E-03
    -22.706  0.5135E-02  0.2192E-03
    -22.692  0.7393E-02  0.3216E-03
    -22.678  0.1054E-01  0.4676E-03
    -22.664  0.1490E-01  0.6740E-03
    -22.650  0.2086E-01  0.9629E-03
    -22.636  0.2894E-01  0.1364E-02
    -22.623  0.3979E-01  0.1915E-02
    -22.609  0.5419E-01  0.2665E-02
    -22.595  0.7315E-01  0.3678E-02
    -22.581  0.9784E-01  0.5033E-02
    -22.567  0.1297E+00  0.6829E-02
    -22.553  0.1704E+00  0.9189E-02
    -22.539  0.2219E+00  0.1226E-01
    -22.526  0.2865E+00  0.1623E-01
    -22.512  0.3666E+00  0.2131E-01
    -22.498  0.4651E+00  0.2775E-01
    -22.484  0.5851E+00  0.3585E-01
    -22.470  0.7298E+00  0.4596E-01
    -22.456  0.9028E+00  0.5846E-01
    -22.443  0.1108E+01  0.7380E-01
    -22.429  0.1348E+01  0.9247E-01
    -22.415  0.1628E+01  0.1150E+00
    -22.401  0.1950E+01  0.1420E+00
    -22.387  0.2319E+01  0.1741E+00
    -22.373  0.2737E+01  0.2120E+00
    -22.359  0.3206E+01  0.2564E+00
    -22.346  0.3729E+01  0.3081E+00
    -22.332  0.4308E+01  0.3677E+00
    -22.318  0.4942E+01  0.4362E+00
    -22.304  0.5633E+01  0.5142E+00
    -22.290  0.6379E+01  0.6025E+00
    -22.276  0.7178E+01  0.7019E+00
    -22.263  0.8029E+01  0.8131E+00
    -22.249  0.8927E+01  0.9367E+00
    -22.235  0.9869E+01  0.1073E+01
    -22.221  0.1085E+02  0.1224E+01
    -22.207  0.1186E+02  0.1388E+01
    -22.193  0.1290E+02  0.1567E+01
    -22.179  0.1396E+02  0.1760E+01
    -22.166  0.1502E+02  0.1968E+01
    -22.152  0.1608E+02  0.2191E+01
    -22.138  0.1714E+02  0.2428E+01
    -22.124  0.1818E+02  0.2680E+01
    -22.110  0.1918E+02  0.2945E+01
    -22.096  0.2015E+02  0.3224E+01
    -22.083  0.2107E+02  0.3516E+01
    -22.069  0.2192E+02  0.3820E+01
    -22.055  0.2272E+02  0.4134E+01
    -22.041  0.2344E+02  0.4459E+01
    -22.027  0.2407E+02  0.4792E+01
    -22.013  0.2463E+02  0.5133E+01
    -21.999  0.2510E+02  0.5481E+01
    -21.986  0.2549E+02  0.5834E+01
    -21.972  0.2579E+02  0.6191E+01
    -21.958  0.2601E+02  0.6551E+01
    -21.944  0.2615E+02  0.6913E+01
    -21.930  0.2622E+02  0.7276E+01
    -21.916  0.2623E+02  0.7639E+01
    -21.902  0.2619E+02  0.8002E+01
    -21.889  0.2610E+02  0.8364E+01
    -21.875  0.2598E+02  0.8723E+01
    -21.861  0.2583E+02  0.9081E+01
    -21.847  0.2566E+02  0.9436E+01
    -21.833  0.2547E+02  0.9789E+01
    -21.819  0.2528E+02  0.1014E+02
    -21.806  0.2510E+02  0.1049E+02
    -21.792  0.2491E+02  0.1083E+02
    -21.778  0.2473E+02  0.1117E+02
    -21.764  0.2456E+02  0.1151E+02
    -21.750  0.2440E+02  0.1185E+02
    -21.736  0.2425E+02  0.1219E+02
    -21.722  0.2412E+02  0.1252E+02
    -21.709  0.2399E+02  0.1285E+02
    -21.695  0.2388E+02  0.1318E+02
    -21.681  0.2378E+02  0.1351E+02
    -21.667  0.2370E+02  0.1384E+02
    -21.653  0.2363E+02  0.1417E+02
    -21.639  0.2359E+02  0.1450E+02
    -21.626  0.2356E+02  0.1482E+02
    -21.612  0.2356E+02  0.1515E+02
    -21.598  0.2358E+02  0.1548E+02
    -21.584  0.2363E+02  0.1580E+02
    -21.570  0.2371E+02  0.1613E+02
    -21.556  0.2382E+02  0.1646E+02
    -21.542  0.2396E+02  0.1679E+02
    -21.529  0.2413E+02  0.1713E+02
    -21.515  0.2434E+02  0.1746E+02
    -21.501  0.2456E+02  0.1780E+02
    -21.487  0.2481E+02  0.1815E+02
    -21.473  0.2508E+02  0.1849E+02
    -21.459  0.2536E+02  0.1885E+02
    -21.445  0.2564E+02  0.1920E+02
    -21.432  0.2592E+02  0.1956E+02
    -21.418  0.2619E+02  0.1992E+02
    -21.404  0.2644E+02  0.2029E+02
    -21.390  0.2666E+02  0.2066E+02
    -21.376  0.2685E+02  0.2103E+02
    -21.362  0.2701E+02  0.2140E+02
    -21.349  0.2713E+02  0.2178E+02
    -21.335  0.2720E+02  0.2216E+02
    -21.321  0.2724E+02  0.2253E+02
    -21.307  0.2723E+02  0.2291E+02
    -21.293  0.2718E+02  0.2329E+02
    -21.279  0.2709E+02  0.2366E+02
    -21.265  0.2698E+02  0.2404E+02
    -21.252  0.2684E+02  0.2441E+02
    -21.238  0.2668E+02  0.2478E+02
    -21.224  0.2651E+02  0.2514E+02
    -21.210  0.2635E+02  0.2551E+02
    -21.196  0.2618E+02  0.2587E+02
    -21.182  0.2604E+02  0.2623E+02
    -21.169  0.2591E+02  0.2659E+02
    -21.155  0.2581E+02  0.2695E+02
    -21.141  0.2574E+02  0.2730E+02
    -21.127  0.2570E+02  0.2766E+02
    -21.113  0.2570E+02  0.2802E+02
    -21.099  0.2574E+02  0.2837E+02
    -21.085  0.2581E+02  0.2873E+02
    -21.072  0.2592E+02  0.2909E+02
    -21.058  0.2607E+02  0.2945E+02
    -21.044  0.2626E+02  0.2981E+02
    -21.030  0.2647E+02  0.3018E+02
    -21.016  0.2672E+02  0.3055E+02
    -21.002  0.2700E+02  0.3092E+02
    -20.988  0.2730E+02  0.3130E+02
    -20.975  0.2762E+02  0.3168E+02
    -20.961  0.2796E+02  0.3207E+02
    -20.947  0.2831E+02  0.3246E+02
    -20.933  0.2868E+02  0.3286E+02
    -20.919  0.2906E+02  0.3326E+02
    -20.905  0.2944E+02  0.3367E+02
    -20.892  0.2983E+02  0.3408E+02
    -20.878  0.3020E+02  0.3450E+02
    -20.864  0.3057E+02  0.3493E+02
    -20.850  0.3093E+02  0.3535E+02
    -20.836  0.3126E+02  0.3579E+02
    -20.822  0.3157E+02  0.3622E+02
    -20.808  0.3184E+02  0.3667E+02
    -20.795  0.3208E+02  0.3711E+02
    -20.781  0.3228E+02  0.3756E+02
    -20.767  0.3243E+02  0.3801E+02
    -20.753  0.3253E+02  0.3846E+02
    -20.739  0.3257E+02  0.3891E+02
    -20.725  0.3256E+02  0.3936E+02
    -20.712  0.3250E+02  0.3981E+02
    -20.698  0.3238E+02  0.4026E+02
    -20.684  0.3220E+02  0.4070E+02
    -20.670  0.3197E+02  0.4115E+02
    -20.656  0.3169E+02  0.4158E+02
    -20.642  0.3137E+02  0.4202E+02
    -20.628  0.3100E+02  0.4245E+02
    -20.615  0.3060E+02  0.4287E+02
    -20.601  0.3017E+02  0.4329E+02
    -20.587  0.2972E+02  0.4370E+02
    -20.573  0.2925E+02  0.4411E+02
    -20.559  0.2878E+02  0.4450E+02
    -20.545  0.2831E+02  0.4490E+02
    -20.532  0.2784E+02  0.4528E+02
    -20.518  0.2740E+02  0.4566E+02
    -20.504  0.2698E+02  0.4603E+02
    -20.490  0.2659E+02  0.4640E+02
    -20.476  0.2623E+02  0.4677E+02
    -20.462  0.2591E+02  0.4713E+02
    -20.448  0.2564E+02  0.4748E+02
    -20.435  0.2542E+02  0.4783E+02
    -20.421  0.2524E+02  0.4818E+02
    -20.407  0.2510E+02  0.4853E+02
    -20.393  0.2501E+02  0.4888E+02
    -20.379  0.2496E+02  0.4922E+02
    -20.365  0.2494E+02  0.4957E+02
    -20.351  0.2496E+02  0.4991E+02
    -20.338  0.2500E+02  0.5026E+02
    -20.324  0.2506E+02  0.5061E+02
    -20.310  0.2513E+02  0.5095E+02
    -20.296  0.2521E+02  0.5130E+02
    -20.282  0.2530E+02  0.5165E+02
    -20.268  0.2539E+02  0.5200E+02
    -20.255  0.2547E+02  0.5236E+02
    -20.241  0.2556E+02  0.5271E+02
    -20.227  0.2565E+02  0.5307E+02
    -20.213  0.2573E+02  0.5342E+02
    -20.199  0.2582E+02  0.5378E+02
    -20.185  0.2592E+02  0.5414E+02
    -20.171  0.2602E+02  0.5450E+02
    -20.158  0.2614E+02  0.5486E+02
    -20.144  0.2628E+02  0.5523E+02
    -20.130  0.2644E+02  0.5559E+02
    -20.116  0.2662E+02  0.5596E+02
    -20.102  0.2684E+02  0.5633E+02
    -20.088  0.2708E+02  0.5671E+02
    -20.075  0.2736E+02  0.5709E+02
    -20.061  0.2767E+02  0.5747E+02
    -20.047  0.2800E+02  0.5786E+02
    -20.033  0.2837E+02  0.5825E+02
    -20.019  0.2876E+02  0.5865E+02
    -20.005  0.2917E+02  0.5905E+02
    -19.991  0.2960E+02  0.5946E+02
    -19.978  0.3004E+02  0.5988E+02
    -19.964  0.3048E+02  0.6030E+02
    -19.950  0.3093E+02  0.6073E+02
    -19.936  0.3137E+02  0.6116E+02
    -19.922  0.3180E+02  0.6160E+02
    -19.908  0.3221E+02  0.6205E+02
    -19.894  0.3261E+02  0.6250E+02
    -19.881  0.3299E+02  0.6296E+02
    -19.867  0.3334E+02  0.6342E+02
    -19.853  0.3367E+02  0.6389E+02
    -19.839  0.3396E+02  0.6436E+02
    -19.825  0.3423E+02  0.6483E+02
    -19.811  0.3446E+02  0.6531E+02
    -19.798  0.3465E+02  0.6579E+02
    -19.784  0.3481E+02  0.6627E+02
    -19.770  0.3493E+02  0.6675E+02
    -19.756  0.3501E+02  0.6724E+02
    -19.742  0.3506E+02  0.6772E+02
    -19.728  0.3507E+02  0.6821E+02
    -19.714  0.3504E+02  0.6869E+02
    -19.701  0.3498E+02  0.6918E+02
    -19.687  0.3488E+02  0.6966E+02
    -19.673  0.3475E+02  0.7014E+02
    -19.659  0.3458E+02  0.7062E+02
    -19.645  0.3439E+02  0.7110E+02
    -19.631  0.3418E+02  0.7157E+02
    -19.618  0.3394E+02  0.7204E+02
    -19.604  0.3369E+02  0.7251E+02
    -19.590  0.3343E+02  0.7297E+02
    -19.576  0.3315E+02  0.7343E+02
    -19.562  0.3288E+02  0.7388E+02
    -19.548  0.3260E+02  0.7434E+02
    -19.534  0.3233E+02  0.7478E+02
    -19.521  0.3207E+02  0.7523E+02
    -19.507  0.3182E+02  0.7567E+02
    -19.493  0.3159E+02  0.7611E+02
    -19.479  0.3137E+02  0.7654E+02
    -19.465  0.3118E+02  0.7697E+02
    -19.451  0.3100E+02  0.7740E+02
    -19.438  0.3085E+02  0.7783E+02
    -19.424  0.3071E+02  0.7825E+02
    -19.410  0.3060E+02  0.7868E+02
    -19.396  0.3051E+02  0.7910E+02
    -19.382  0.3043E+02  0.7952E+02
    -19.368  0.3037E+02  0.7994E+02
    -19.354  0.3032E+02  0.8036E+02
    -19.341  0.3028E+02  0.8078E+02
    -19.327  0.3025E+02  0.8120E+02
    -19.313  0.3022E+02  0.8162E+02
    -19.299  0.3020E+02  0.8204E+02
    -19.285  0.3017E+02  0.8245E+02
    -19.271  0.3015E+02  0.8287E+02
    -19.257  0.3012E+02  0.8329E+02
    -19.244  0.3009E+02  0.8371E+02
    -19.230  0.3005E+02  0.8412E+02
    -19.216  0.3001E+02  0.8454E+02
    -19.202  0.2997E+02  0.8495E+02
    -19.188  0.2993E+02  0.8537E+02
    -19.174  0.2988E+02  0.8578E+02
    -19.161  0.2983E+02  0.8619E+02
    -19.147  0.2978E+02  0.8661E+02
    -19.133  0.2974E+02  0.8702E+02
    -19.119  0.2970E+02  0.8743E+02
    -19.105  0.2966E+02  0.8784E+02
    -19.091  0.2962E+02  0.8825E+02
    -19.077  0.2959E+02  0.8866E+02
    -19.064  0.2956E+02  0.8907E+02
    -19.050  0.2954E+02  0.8948E+02
    -19.036  0.2952E+02  0.8989E+02
    -19.022  0.2950E+02  0.9030E+02
    -19.008  0.2948E+02  0.9070E+02
    -18.994  0.2946E+02  0.9111E+02
    -18.981  0.2945E+02  0.9152E+02
    -18.967  0.2943E+02  0.9193E+02
    -18.953  0.2942E+02  0.9233E+02
    -18.939  0.2941E+02  0.9274E+02
    -18.925  0.2940E+02  0.9315E+02
    -18.911  0.2940E+02  0.9356E+02
    -18.897  0.2940E+02  0.9396E+02
    -18.884  0.2941E+02  0.9437E+02
    -18.870  0.2943E+02  0.9478E+02
    -18.856  0.2945E+02  0.9519E+02
    -18.842  0.2949E+02  0.9559E+02
    -18.828  0.2953E+02  0.9600E+02
    -18.814  0.2958E+02  0.9641E+02
    -18.800  0.2964E+02  0.9682E+02
    -18.787  0.2969E+02  0.9723E+02
    -18.773  0.2975E+02  0.9765E+02
    -18.759  0.2981E+02  0.9806E+02
    -18.745  0.2987E+02  0.9847E+02
    -18.731  0.2992E+02  0.9889E+02
    -18.717  0.2996E+02  0.9930E+02
    -18.704  0.2998E+02  0.9972E+02
    -18.690  0.3000E+02  0.1001E+03
    -18.676  0.3001E+02  0.1005E+03
    -18.662  0.3000E+02  0.1010E+03
    -18.648  0.2998E+02  0.1014E+03
    -18.634  0.2996E+02  0.1018E+03
    -18.620  0.2993E+02  0.1022E+03
    -18.607  0.2991E+02  0.1026E+03
    -18.593  0.2988E+02  0.1030E+03
    -18.579  0.2987E+02  0.1035E+03
    -18.565  0.2987E+02  0.1039E+03
    -18.551  0.2989E+02  0.1043E+03
    -18.537  0.2993E+02  0.1047E+03
    -18.524  0.2999E+02  0.1051E+03
    -18.510  0.3008E+02  0.1055E+03
    -18.496  0.3020E+02  0.1059E+03
    -18.482  0.3035E+02  0.1064E+03
    -18.468  0.3052E+02  0.1068E+03
    -18.454  0.3072E+02  0.1072E+03
    -18.440  0.3095E+02  0.1076E+03
    -18.427  0.3121E+02  0.1081E+03
    -18.413  0.3148E+02  0.1085E+03
    -18.399  0.3177E+02  0.1089E+03
    -18.385  0.3207E+02  0.1094E+03
    -18.371  0.3238E+02  0.1098E+03
    -18.357  0.3269E+02  0.1103E+03
    -18.343  0.3301E+02  0.1107E+03
    -18.330  0.3332E+02  0.1112E+03
    -18.316  0.3362E+02  0.1117E+03
    -18.302  0.3390E+02  0.1121E+03
    -18.288  0.3417E+02  0.1126E+03
    -18.274  0.3442E+02  0.1131E+03
    -18.260  0.3464E+02  0.1136E+03
    -18.247  0.3483E+02  0.1141E+03
    -18.233  0.3500E+02  0.1145E+03
    -18.219  0.3513E+02  0.1150E+03
    -18.205  0.3524E+02  0.1155E+03
    -18.191  0.3532E+02  0.1160E+03
    -18.177  0.3537E+02  0.1165E+03
    -18.163  0.3539E+02  0.1170E+03
    -18.150  0.3539E+02  0.1175E+03
    -18.136  0.3537E+02  0.1180E+03
    -18.122  0.3534E+02  0.1185E+03
    -18.108  0.3529E+02  0.1189E+03
    -18.094  0.3524E+02  0.1194E+03
    -18.080  0.3519E+02  0.1199E+03
    -18.067  0.3514E+02  0.1204E+03
    -18.053  0.3508E+02  0.1209E+03
    -18.039  0.3504E+02  0.1214E+03
    -18.025  0.3500E+02  0.1219E+03
    -18.011  0.3496E+02  0.1223E+03
    -17.997  0.3493E+02  0.1228E+03
    -17.983  0.3490E+02  0.1233E+03
    -17.970  0.3488E+02  0.1238E+03
    -17.956  0.3485E+02  0.1243E+03
    -17.942  0.3481E+02  0.1248E+03
    -17.928  0.3476E+02  0.1252E+03
    -17.914  0.3470E+02  0.1257E+03
    -17.900  0.3462E+02  0.1262E+03
    -17.887  0.3451E+02  0.1267E+03
    -17.873  0.3439E+02  0.1272E+03
    -17.859  0.3424E+02  0.1276E+03
    -17.845  0.3406E+02  0.1281E+03
    -17.831  0.3386E+02  0.1286E+03
    -17.817  0.3363E+02  0.1290E+03
    -17.803  0.3338E+02  0.1295E+03
    -17.790  0.3311E+02  0.1300E+03
    -17.776  0.3281E+02  0.1304E+03
    -17.762  0.3251E+02  0.1309E+03
    -17.748  0.3220E+02  0.1313E+03
    -17.734  0.3188E+02  0.1317E+03
    -17.720  0.3155E+02  0.1322E+03
    -17.706  0.3123E+02  0.1326E+03
    -17.693  0.3092E+02  0.1330E+03
    -17.679  0.3062E+02  0.1335E+03
    -17.665  0.3033E+02  0.1339E+03
    -17.651  0.3006E+02  0.1343E+03
    -17.637  0.2981E+02  0.1347E+03
    -17.623  0.2958E+02  0.1351E+03
    -17.610  0.2938E+02  0.1355E+03
    -17.596  0.2920E+02  0.1359E+03
    -17.582  0.2906E+02  0.1363E+03
    -17.568  0.2894E+02  0.1367E+03
    -17.554  0.2885E+02  0.1371E+03
    -17.540  0.2879E+02  0.1375E+03
    -17.526  0.2876E+02  0.1379E+03
    -17.513  0.2875E+02  0.1383E+03
    -17.499  0.2877E+02  0.1387E+03
    -17.485  0.2880E+02  0.1391E+03
    -17.471  0.2884E+02  0.1395E+03
    -17.457  0.2889E+02  0.1399E+03
    -17.443  0.2895E+02  0.1403E+03
    -17.430  0.2901E+02  0.1407E+03
    -17.416  0.2906E+02  0.1411E+03
    -17.402  0.2909E+02  0.1415E+03
    -17.388  0.2911E+02  0.1419E+03
    -17.374  0.2912E+02  0.1423E+03
    -17.360  0.2910E+02  0.1428E+03
    -17.346  0.2906E+02  0.1432E+03
    -17.333  0.2900E+02  0.1436E+03
    -17.319  0.2892E+02  0.1440E+03
    -17.305  0.2882E+02  0.1444E+03
    -17.291  0.2871E+02  0.1448E+03
    -17.277  0.2858E+02  0.1451E+03
    -17.263  0.2845E+02  0.1455E+03
    -17.249  0.2832E+02  0.1459E+03
    -17.236  0.2820E+02  0.1463E+03
    -17.222  0.2809E+02  0.1467E+03
    -17.208  0.2799E+02  0.1471E+03
    -17.194  0.2793E+02  0.1475E+03
    -17.180  0.2789E+02  0.1479E+03
    -17.166  0.2788E+02  0.1483E+03
    -17.153  0.2791E+02  0.1486E+03
    -17.139  0.2798E+02  0.1490E+03
    -17.125  0.2809E+02  0.1494E+03
    -17.111  0.2823E+02  0.1498E+03
    -17.097  0.2840E+02  0.1502E+03
    -17.083  0.2861E+02  0.1506E+03
    -17.069  0.2885E+02  0.1510E+03
    -17.056  0.2910E+02  0.1514E+03
    -17.042  0.2937E+02  0.1518E+03
    -17.028  0.2965E+02  0.1522E+03
    -17.014  0.2993E+02  0.1526E+03
    -17.000  0.3021E+02  0.1531E+03
    -16.986  0.3047E+02  0.1535E+03
    -16.973  0.3071E+02  0.1539E+03
    -16.959  0.3093E+02  0.1543E+03
    -16.945  0.3112E+02  0.1548E+03
    -16.931  0.3127E+02  0.1552E+03
    -16.917  0.3139E+02  0.1556E+03
    -16.903  0.3146E+02  0.1561E+03
    -16.889  0.3151E+02  0.1565E+03
    -16.876  0.3151E+02  0.1569E+03
    -16.862  0.3148E+02  0.1574E+03
    -16.848  0.3142E+02  0.1578E+03
    -16.834  0.3134E+02  0.1582E+03
    -16.820  0.3123E+02  0.1587E+03
    -16.806  0.3111E+02  0.1591E+03
    -16.792  0.3099E+02  0.1595E+03
    -16.779  0.3086E+02  0.1600E+03
    -16.765  0.3073E+02  0.1604E+03
    -16.751  0.3062E+02  0.1608E+03
    -16.737  0.3051E+02  0.1612E+03
    -16.723  0.3042E+02  0.1617E+03
    -16.709  0.3035E+02  0.1621E+03
    -16.696  0.3029E+02  0.1625E+03
    -16.682  0.3026E+02  0.1629E+03
    -16.668  0.3024E+02  0.1633E+03
    -16.654  0.3023E+02  0.1638E+03
    -16.640  0.3025E+02  0.1642E+03
    -16.626  0.3028E+02  0.1646E+03
    -16.612  0.3032E+02  0.1650E+03
    -16.599  0.3037E+02  0.1654E+03
    -16.585  0.3042E+02  0.1659E+03
    -16.571  0.3049E+02  0.1663E+03
    -16.557  0.3056E+02  0.1667E+03
    -16.543  0.3063E+02  0.1671E+03
    -16.529  0.3071E+02  0.1675E+03
    -16.516  0.3078E+02  0.1680E+03
    -16.502  0.3086E+02  0.1684E+03
    -16.488  0.3094E+02  0.1688E+03
    -16.474  0.3101E+02  0.1693E+03
    -16.460  0.3108E+02  0.1697E+03
    -16.446  0.3115E+02  0.1701E+03
    -16.432  0.3120E+02  0.1706E+03
    -16.419  0.3124E+02  0.1710E+03
    -16.405  0.3127E+02  0.1714E+03
    -16.391  0.3128E+02  0.1719E+03
    -16.377  0.3127E+02  0.1723E+03
    -16.363  0.3124E+02  0.1727E+03
    -16.349  0.3119E+02  0.1732E+03
    -16.336  0.3112E+02  0.1736E+03
    -16.322  0.3102E+02  0.1740E+03
    -16.308  0.3090E+02  0.1744E+03
    -16.294  0.3076E+02  0.1749E+03
    -16.280  0.3061E+02  0.1753E+03
    -16.266  0.3044E+02  0.1757E+03
    -16.252  0.3026E+02  0.1761E+03
    -16.239  0.3007E+02  0.1765E+03
    -16.225  0.2988E+02  0.1770E+03
    -16.211  0.2969E+02  0.1774E+03
    -16.197  0.2951E+02  0.1778E+03
    -16.183  0.2933E+02  0.1782E+03
    -16.169  0.2917E+02  0.1786E+03
    -16.155  0.2901E+02  0.1790E+03
    -16.142  0.2887E+02  0.1794E+03
    -16.128  0.2875E+02  0.1798E+03
    -16.114  0.2865E+02  0.1802E+03
    -16.100  0.2856E+02  0.1806E+03
    -16.086  0.2849E+02  0.1810E+03
    -16.072  0.2843E+02  0.1814E+03
    -16.059  0.2839E+02  0.1818E+03
    -16.045  0.2837E+02  0.1822E+03
    -16.031  0.2836E+02  0.1825E+03
    -16.017  0.2836E+02  0.1829E+03
    -16.003  0.2838E+02  0.1833E+03
    -15.989  0.2840E+02  0.1837E+03
    -15.975  0.2844E+02  0.1841E+03
    -15.962  0.2848E+02  0.1845E+03
    -15.948  0.2853E+02  0.1849E+03
    -15.934  0.2858E+02  0.1853E+03
    -15.920  0.2863E+02  0.1857E+03
    -15.906  0.2869E+02  0.1861E+03
    -15.892  0.2874E+02  0.1865E+03
    -15.879  0.2880E+02  0.1869E+03
    -15.865  0.2884E+02  0.1873E+03
    -15.851  0.2889E+02  0.1877E+03
    -15.837  0.2893E+02  0.1881E+03
    -15.823  0.2897E+02  0.1885E+03
    -15.809  0.2900E+02  0.1889E+03
    -15.795  0.2904E+02  0.1893E+03
    -15.782  0.2907E+02  0.1897E+03
    -15.768  0.2911E+02  0.1901E+03
    -15.754  0.2916E+02  0.1905E+03
    -15.740  0.2922E+02  0.1909E+03
    -15.726  0.2929E+02  0.1913E+03
    -15.712  0.2938E+02  0.1917E+03
    -15.698  0.2948E+02  0.1921E+03
    -15.685  0.2961E+02  0.1925E+03
    -15.671  0.2975E+02  0.1930E+03
    -15.657  0.2992E+02  0.1934E+03
    -15.643  0.3010E+02  0.1938E+03
    -15.629  0.3030E+02  0.1942E+03
    -15.615  0.3051E+02  0.1946E+03
    -15.602  0.3074E+02  0.1951E+03
    -15.588  0.3097E+02  0.1955E+03
    -15.574  0.3121E+02  0.1959E+03
    -15.560  0.3145E+02  0.1964E+03
    -15.546  0.3168E+02  0.1968E+03
    -15.532  0.3191E+02  0.1972E+03
    -15.518  0.3212E+02  0.1977E+03
    -15.505  0.3232E+02  0.1981E+03
    -15.491  0.3250E+02  0.1986E+03
    -15.477  0.3266E+02  0.1990E+03
    -15.463  0.3280E+02  0.1995E+03
    -15.449  0.3293E+02  0.1999E+03
    -15.435  0.3303E+02  0.2004E+03
    -15.422  0.3312E+02  0.2009E+03
    -15.408  0.3319E+02  0.2013E+03
    -15.394  0.3325E+02  0.2018E+03
    -15.380  0.3329E+02  0.2022E+03
    -15.366  0.3333E+02  0.2027E+03
    -15.352  0.3335E+02  0.2032E+03
    -15.338  0.3337E+02  0.2036E+03
    -15.325  0.3338E+02  0.2041E+03
    -15.311  0.3338E+02  0.2045E+03
    -15.297  0.3338E+02  0.2050E+03
    -15.283  0.3338E+02  0.2055E+03
    -15.269  0.3337E+02  0.2059E+03
    -15.255  0.3336E+02  0.2064E+03
    -15.241  0.3334E+02  0.2069E+03
    -15.228  0.3332E+02  0.2073E+03
    -15.214  0.3329E+02  0.2078E+03
    -15.200  0.3325E+02  0.2082E+03
    -15.186  0.3321E+02  0.2087E+03
    -15.172  0.3317E+02  0.2092E+03
    -15.158  0.3312E+02  0.2096E+03
    -15.145  0.3306E+02  0.2101E+03
    -15.131  0.3300E+02  0.2105E+03
    -15.117  0.3294E+02  0.2110E+03
    -15.103  0.3287E+02  0.2114E+03
    -15.089  0.3281E+02  0.2119E+03
    -15.075  0.3275E+02  0.2124E+03
    -15.061  0.3269E+02  0.2128E+03
    -15.048  0.3264E+02  0.2133E+03
    -15.034  0.3260E+02  0.2137E+03
    -15.020  0.3256E+02  0.2142E+03
    -15.006  0.3253E+02  0.2146E+03
    -14.992  0.3251E+02  0.2151E+03
    -14.978  0.3250E+02  0.2155E+03
    -14.965  0.3249E+02  0.2160E+03
    -14.951  0.3249E+02  0.2164E+03
    -14.937  0.3249E+02  0.2169E+03
    -14.923  0.3249E+02  0.2173E+03
    -14.909  0.3249E+02  0.2178E+03
    -14.895  0.3248E+02  0.2182E+03
    -14.881  0.3247E+02  0.2187E+03
    -14.868  0.3245E+02  0.2191E+03
    -14.854  0.3241E+02  0.2196E+03
    -14.840  0.3236E+02  0.2200E+03
    -14.826  0.3230E+02  0.2205E+03
    -14.812  0.3222E+02  0.2209E+03
    -14.798  0.3212E+02  0.2213E+03
    -14.785  0.3202E+02  0.2218E+03
    -14.771  0.3189E+02  0.2222E+03
    -14.757  0.3176E+02  0.2227E+03
    -14.743  0.3162E+02  0.2231E+03
    -14.729  0.3148E+02  0.2235E+03
    -14.715  0.3134E+02  0.2240E+03
    -14.701  0.3120E+02  0.2244E+03
    -14.688  0.3107E+02  0.2248E+03
    -14.674  0.3096E+02  0.2253E+03
    -14.660  0.3086E+02  0.2257E+03
    -14.646  0.3078E+02  0.2261E+03
    -14.632  0.3072E+02  0.2265E+03
    -14.618  0.3069E+02  0.2270E+03
    -14.604  0.3068E+02  0.2274E+03
    -14.591  0.3070E+02  0.2278E+03
    -14.577  0.3073E+02  0.2282E+03
    -14.563  0.3079E+02  0.2287E+03
    -14.549  0.3086E+02  0.2291E+03
    -14.535  0.3095E+02  0.2295E+03
    -14.521  0.3104E+02  0.2300E+03
    -14.508  0.3114E+02  0.2304E+03
    -14.494  0.3123E+02  0.2308E+03
    -14.480  0.3131E+02  0.2313E+03
    -14.466  0.3138E+02  0.2317E+03
    -14.452  0.3143E+02  0.2321E+03
    -14.438  0.3146E+02  0.2326E+03
    -14.424  0.3147E+02  0.2330E+03
    -14.411  0.3145E+02  0.2334E+03
    -14.397  0.3140E+02  0.2339E+03
    -14.383  0.3133E+02  0.2343E+03
    -14.369  0.3124E+02  0.2347E+03
    -14.355  0.3113E+02  0.2352E+03
    -14.341  0.3100E+02  0.2356E+03
    -14.328  0.3087E+02  0.2360E+03
    -14.314  0.3073E+02  0.2364E+03
    -14.300  0.3060E+02  0.2369E+03
    -14.286  0.3047E+02  0.2373E+03
    -14.272  0.3036E+02  0.2377E+03
    -14.258  0.3027E+02  0.2381E+03
    -14.244  0.3021E+02  0.2386E+03
    -14.231  0.3017E+02  0.2390E+03
    -14.217  0.3017E+02  0.2394E+03
    -14.203  0.3019E+02  0.2398E+03
    -14.189  0.3025E+02  0.2402E+03
    -14.175  0.3035E+02  0.2406E+03
    -14.161  0.3047E+02  0.2411E+03
    -14.147  0.3061E+02  0.2415E+03
    -14.134  0.3078E+02  0.2419E+03
    -14.120  0.3096E+02  0.2423E+03
    -14.106  0.3115E+02  0.2428E+03
    -14.092  0.3135E+02  0.2432E+03
    -14.078  0.3154E+02  0.2436E+03
    -14.064  0.3173E+02  0.2441E+03
    -14.051  0.3191E+02  0.2445E+03
    -14.037  0.3208E+02  0.2450E+03
    -14.023  0.3223E+02  0.2454E+03
    -14.009  0.3235E+02  0.2459E+03
    -13.995  0.3245E+02  0.2463E+03
    -13.981  0.3252E+02  0.2468E+03
    -13.967  0.3257E+02  0.2472E+03
    -13.954  0.3260E+02  0.2477E+03
    -13.940  0.3260E+02  0.2481E+03
    -13.926  0.3258E+02  0.2486E+03
    -13.912  0.3254E+02  0.2490E+03
    -13.898  0.3249E+02  0.2495E+03
    -13.884  0.3243E+02  0.2499E+03
    -13.871  0.3236E+02  0.2504E+03
    -13.857  0.3229E+02  0.2508E+03
    -13.843  0.3223E+02  0.2513E+03
    -13.829  0.3218E+02  0.2517E+03
    -13.815  0.3215E+02  0.2522E+03
    -13.801  0.3213E+02  0.2526E+03
    -13.787  0.3214E+02  0.2530E+03
    -13.774  0.3217E+02  0.2535E+03
    -13.760  0.3223E+02  0.2539E+03
    -13.746  0.3231E+02  0.2544E+03
    -13.732  0.3242E+02  0.2548E+03
    -13.718  0.3256E+02  0.2553E+03
    -13.704  0.3272E+02  0.2557E+03
    -13.690  0.3290E+02  0.2562E+03
    -13.677  0.3309E+02  0.2567E+03
    -13.663  0.3329E+02  0.2571E+03
    -13.649  0.3349E+02  0.2576E+03
    -13.635  0.3370E+02  0.2580E+03
    -13.621  0.3389E+02  0.2585E+03
    -13.607  0.3407E+02  0.2590E+03
    -13.594  0.3423E+02  0.2595E+03
    -13.580  0.3436E+02  0.2599E+03
    -13.566  0.3447E+02  0.2604E+03
    -13.552  0.3455E+02  0.2609E+03
    -13.538  0.3460E+02  0.2614E+03
    -13.524  0.3462E+02  0.2618E+03
    -13.510  0.3462E+02  0.2623E+03
    -13.497  0.3459E+02  0.2628E+03
    -13.483  0.3453E+02  0.2633E+03
    -13.469  0.3446E+02  0.2638E+03
    -13.455  0.3438E+02  0.2642E+03
    -13.441  0.3429E+02  0.2647E+03
    -13.427  0.3420E+02  0.2652E+03
    -13.414  0.3411E+02  0.2657E+03
    -13.400  0.3402E+02  0.2661E+03
    -13.386  0.3395E+02  0.2666E+03
    -13.372  0.3388E+02  0.2671E+03
    -13.358  0.3382E+02  0.2675E+03
    -13.344  0.3378E+02  0.2680E+03
    -13.330  0.3375E+02  0.2685E+03
    -13.317  0.3372E+02  0.2689E+03
    -13.303  0.3370E+02  0.2694E+03
    -13.289  0.3369E+02  0.2699E+03
    -13.275  0.3367E+02  0.2703E+03
    -13.261  0.3366E+02  0.2708E+03
    -13.247  0.3364E+02  0.2713E+03
    -13.234  0.3362E+02  0.2717E+03
    -13.220  0.3359E+02  0.2722E+03
    -13.206  0.3355E+02  0.2727E+03
    -13.192  0.3351E+02  0.2731E+03
    -13.178  0.3345E+02  0.2736E+03
    -13.164  0.3339E+02  0.2741E+03
    -13.150  0.3332E+02  0.2745E+03
    -13.137  0.3324E+02  0.2750E+03
    -13.123  0.3317E+02  0.2754E+03
    -13.109  0.3308E+02  0.2759E+03
    -13.095  0.3300E+02  0.2764E+03
    -13.081  0.3292E+02  0.2768E+03
    -13.067  0.3285E+02  0.2773E+03
    -13.053  0.3277E+02  0.2777E+03
    -13.040  0.3271E+02  0.2782E+03
    -13.026  0.3265E+02  0.2786E+03
    -13.012  0.3261E+02  0.2791E+03
    -12.998  0.3258E+02  0.2795E+03
    -12.984  0.3255E+02  0.2800E+03
    -12.970  0.3255E+02  0.2804E+03
    -12.957  0.3256E+02  0.2809E+03
    -12.943  0.3258E+02  0.2813E+03
    -12.929  0.3262E+02  0.2818E+03
    -12.915  0.3268E+02  0.2822E+03
    -12.901  0.3275E+02  0.2827E+03
    -12.887  0.3284E+02  0.2831E+03
    -12.873  0.3295E+02  0.2836E+03
    -12.860  0.3307E+02  0.2841E+03
    -12.846  0.3320E+02  0.2845E+03
    -12.832  0.3334E+02  0.2850E+03
    -12.818  0.3349E+02  0.2854E+03
    -12.804  0.3365E+02  0.2859E+03
    -12.790  0.3380E+02  0.2864E+03
    -12.777  0.3396E+02  0.2868E+03
    -12.763  0.3411E+02  0.2873E+03