 251 251   0   0
  0.5171054E+02  0.2956783E-08  0.2194842E-08  0.2000000E-08  0.5000000E-15
  1.000000000000000E-004
  CAR 
 unknown system                          
      3.60290970    -24.28238650 2000     -3.47336126      1.00000000
    -24.282  0.0000E+00  0.0000E+00
    -24.268  0.0000E+00  0.0000E+00
    -24.254  0.0000E+00  0.0000E+00
    -24.241  0.0000E+00  0.0000E+00
    -24.227  0.0000E+00  0.0000E+00
    -24.213  0.0000E+00  0.0000E+00
    -24.199  0.0000E+00  0.0000E+00
    -24.185  0.0000E+00  0.0000E+00
    -24.171  0.0000E+00  0.0000E+00
    -24.157  0.0000E+00  0.0000E+00
    -24.143  0.0000E+00  0.0000E+00
    -24.129  0.0000E+00  0.0000E+00
    -24.115  0.0000E+00  0.0000E+00
    -24.101  0.0000E+00  0.0000E+00
    -24.087  0.0000E+00  0.0000E+00
    -24.073  0.0000E+00  0.0000E+00
    -24.059  0.0000E+00  0.0000E+00
    -24.045  0.0000E+00  0.0000E+00
    -24.031  0.0000E+00  0.0000E+00
    -24.017  0.0000E+00  0.0000E+00
    -24.003  0.0000E+00  0.0000E+00
    -23.989  0.0000E+00  0.0000E+00
    -23.975  0.0000E+00  0.0000E+00
    -23.962  0.0000E+00  0.0000E+00
    -23.948  0.0000E+00  0.0000E+00
    -23.934  0.0000E+00  0.0000E+00
    -23.920  0.0000E+00  0.0000E+00
    -23.906  0.0000E+00  0.0000E+00
    -23.892  0.0000E+00  0.0000E+00
    -23.878  0.0000E+00  0.0000E+00
    -23.864  0.0000E+00  0.0000E+00
    -23.850  0.0000E+00  0.0000E+00
    -23.836  0.0000E+00  0.0000E+00
    -23.822  0.0000E+00  0.0000E+00
    -23.808  0.0000E+00  0.0000E+00
    -23.794  0.0000E+00  0.0000E+00
    -23.780  0.0000E+00  0.0000E+00
    -23.766  0.0000E+00  0.0000E+00
    -23.752  0.0000E+00  0.0000E+00
    -23.738  0.0000E+00  0.0000E+00
    -23.724  0.0000E+00  0.0000E+00
    -23.710  0.0000E+00  0.0000E+00
    -23.697  0.0000E+00  0.0000E+00
    -23.683  0.0000E+00  0.0000E+00
    -23.669  0.0000E+00  0.0000E+00
    -23.655  0.0000E+00  0.0000E+00
    -23.641  0.0000E+00  0.0000E+00
    -23.627  0.0000E+00  0.0000E+00
    -23.613  0.0000E+00  0.0000E+00
    -23.599  0.0000E+00  0.0000E+00
    -23.585  0.0000E+00  0.0000E+00
    -23.571  0.0000E+00  0.0000E+00
    -23.557  0.0000E+00  0.0000E+00
    -23.543  0.0000E+00  0.0000E+00
    -23.529  0.0000E+00  0.0000E+00
    -23.515  0.0000E+00  0.0000E+00
    -23.501  0.0000E+00  0.0000E+00
    -23.487  0.0000E+00  0.0000E+00
    -23.473  0.0000E+00  0.0000E+00
    -23.459  0.7959E-14  0.1110E-15
    -23.445  0.7959E-14  0.2220E-15
    -23.431  0.1592E-13  0.4441E-15
    -23.418  0.3449E-13  0.9252E-15
    -23.404  0.8755E-13  0.2146E-14
    -23.390  0.1804E-12  0.4663E-14
    -23.376  0.3944E-12  0.1016E-13
    -23.362  0.8472E-12  0.2198E-13
    -23.348  0.1800E-11  0.4709E-13
    -23.334  0.3786E-11  0.9990E-13
    -23.320  0.7883E-11  0.2099E-12
    -23.306  0.1625E-10  0.4365E-12
    -23.292  0.3319E-10  0.8995E-12
    -23.278  0.6712E-10  0.1836E-11
    -23.264  0.1344E-09  0.3711E-11
    -23.250  0.2666E-09  0.7430E-11
    -23.236  0.5237E-09  0.1474E-10
    -23.222  0.1019E-08  0.2895E-10
    -23.208  0.1963E-08  0.5633E-10
    -23.194  0.3745E-08  0.1086E-09
    -23.180  0.7076E-08  0.2073E-09
    -23.166  0.1324E-07  0.3920E-09
    -23.152  0.2454E-07  0.7342E-09
    -23.139  0.4503E-07  0.1362E-08
    -23.125  0.8184E-07  0.2504E-08
    -23.111  0.1473E-06  0.4559E-08
    -23.097  0.2626E-06  0.8222E-08
    -23.083  0.4636E-06  0.1469E-07
    -23.069  0.8105E-06  0.2599E-07
    -23.055  0.1403E-05  0.4557E-07
    -23.041  0.2406E-05  0.7914E-07
    -23.027  0.4087E-05  0.1361E-06
    -23.013  0.6873E-05  0.2320E-06
    -22.999  0.1145E-04  0.3917E-06
    -22.985  0.1889E-04  0.6552E-06
    -22.971  0.3085E-04  0.1086E-05
    -22.957  0.4992E-04  0.1782E-05
    -22.943  0.8000E-04  0.2898E-05
    -22.929  0.1270E-03  0.4669E-05
    -22.915  0.1996E-03  0.7453E-05
    -22.901  0.3107E-03  0.1179E-04
    -22.887  0.4790E-03  0.1847E-04
    -22.873  0.7315E-03  0.2867E-04
    -22.860  0.1106E-02  0.4411E-04
    -22.846  0.1657E-02  0.6722E-04
    -22.832  0.2459E-02  0.1015E-03
    -22.818  0.3613E-02  0.1519E-03
    -22.804  0.5260E-02  0.2253E-03
    -22.790  0.7583E-02  0.3311E-03
    -22.776  0.1083E-01  0.4821E-03
    -22.762  0.1532E-01  0.6958E-03
    -22.748  0.2147E-01  0.9953E-03
    -22.734  0.2979E-01  0.1411E-02
    -22.720  0.4097E-01  0.1982E-02
    -22.706  0.5580E-01  0.2761E-02
    -22.692  0.7530E-01  0.3811E-02
    -22.678  0.1007E+00  0.5216E-02
    -22.664  0.1334E+00  0.7076E-02
    -22.650  0.1750E+00  0.9517E-02
    -22.636  0.2276E+00  0.1269E-01
    -22.622  0.2933E+00  0.1678E-01
    -22.608  0.3745E+00  0.2201E-01
    -22.594  0.4740E+00  0.2862E-01
    -22.581  0.5945E+00  0.3691E-01
    -22.567  0.7392E+00  0.4722E-01
    -22.553  0.9111E+00  0.5993E-01
    -22.539  0.1113E+01  0.7547E-01
    -22.525  0.1349E+01  0.9428E-01
    -22.511  0.1621E+01  0.1169E+00
    -22.497  0.1931E+01  0.1438E+00
    -22.483  0.2283E+01  0.1757E+00
    -22.469  0.2678E+01  0.2130E+00
    -22.455  0.3116E+01  0.2565E+00
    -22.441  0.3599E+01  0.3067E+00
    -22.427  0.4126E+01  0.3643E+00
    -22.413  0.4697E+01  0.4298E+00
    -22.399  0.5311E+01  0.5039E+00
    -22.385  0.5965E+01  0.5871E+00
    -22.371  0.6656E+01  0.6799E+00
    -22.357  0.7383E+01  0.7829E+00
    -22.343  0.8141E+01  0.8965E+00
    -22.329  0.8927E+01  0.1021E+01
    -22.315  0.9736E+01  0.1157E+01
    -22.302  0.1057E+02  0.1304E+01
    -22.288  0.1141E+02  0.1463E+01
    -22.274  0.1227E+02  0.1635E+01
    -22.260  0.1314E+02  0.1818E+01
    -22.246  0.1401E+02  0.2013E+01
    -22.232  0.1488E+02  0.2221E+01
    -22.218  0.1575E+02  0.2440E+01
    -22.204  0.1661E+02  0.2672E+01
    -22.190  0.1746E+02  0.2916E+01
    -22.176  0.1829E+02  0.3171E+01
    -22.162  0.1911E+02  0.3437E+01
    -22.148  0.1991E+02  0.3715E+01
    -22.134  0.2069E+02  0.4004E+01
    -22.120  0.2144E+02  0.4303E+01
    -22.106  0.2217E+02  0.4612E+01
    -22.092  0.2286E+02  0.4931E+01
    -22.078  0.2353E+02  0.5259E+01
    -22.064  0.2416E+02  0.5596E+01
    -22.050  0.2477E+02  0.5942E+01
    -22.036  0.2534E+02  0.6295E+01
    -22.023  0.2588E+02  0.6656E+01
    -22.009  0.2639E+02  0.7024E+01
    -21.995  0.2686E+02  0.7399E+01
    -21.981  0.2731E+02  0.7780E+01
    -21.967  0.2773E+02  0.8167E+01
    -21.953  0.2811E+02  0.8559E+01
    -21.939  0.2846E+02  0.8956E+01
    -21.925  0.2878E+02  0.9358E+01
    -21.911  0.2906E+02  0.9763E+01
    -21.897  0.2931E+02  0.1017E+02
    -21.883  0.2952E+02  0.1058E+02
    -21.869  0.2969E+02  0.1100E+02
    -21.855  0.2982E+02  0.1141E+02
    -21.841  0.2992E+02  0.1183E+02
    -21.827  0.2999E+02  0.1225E+02
    -21.813  0.3002E+02  0.1267E+02
    -21.799  0.3002E+02  0.1309E+02
    -21.785  0.3001E+02  0.1351E+02
    -21.771  0.2998E+02  0.1392E+02
    -21.758  0.2995E+02  0.1434E+02
    -21.744  0.2991E+02  0.1476E+02
    -21.730  0.2988E+02  0.1518E+02
    -21.716  0.2987E+02  0.1559E+02
    -21.702  0.2987E+02  0.1601E+02
    -21.688  0.2991E+02  0.1643E+02
    -21.674  0.2997E+02  0.1684E+02
    -21.660  0.3006E+02  0.1726E+02
    -21.646  0.3019E+02  0.1768E+02
    -21.632  0.3035E+02  0.1811E+02
    -21.618  0.3054E+02  0.1853E+02
    -21.604  0.3076E+02  0.1896E+02
    -21.590  0.3100E+02  0.1940E+02
    -21.576  0.3126E+02  0.1983E+02
    -21.562  0.3153E+02  0.2027E+02
    -21.548  0.3181E+02  0.2072E+02
    -21.534  0.3209E+02  0.2116E+02
    -21.520  0.3236E+02  0.2161E+02
    -21.506  0.3262E+02  0.2207E+02
    -21.492  0.3287E+02  0.2253E+02
    -21.479  0.3311E+02  0.2299E+02
    -21.465  0.3333E+02  0.2345E+02
    -21.451  0.3352E+02  0.2392E+02
    -21.437  0.3370E+02  0.2439E+02
    -21.423  0.3386E+02  0.2486E+02
    -21.409  0.3401E+02  0.2534E+02
    -21.395  0.3414E+02  0.2582E+02
    -21.381  0.3425E+02  0.2629E+02
    -21.367  0.3436E+02  0.2677E+02
    -21.353  0.3447E+02  0.2725E+02
    -21.339  0.3457E+02  0.2774E+02
    -21.325  0.3467E+02  0.2822E+02
    -21.311  0.3477E+02  0.2870E+02
    -21.297  0.3488E+02  0.2919E+02
    -21.283  0.3500E+02  0.2968E+02
    -21.269  0.3514E+02  0.3017E+02
    -21.255  0.3528E+02  0.3066E+02
    -21.241  0.3544E+02  0.3116E+02
    -21.227  0.3561E+02  0.3165E+02
    -21.213  0.3580E+02  0.3215E+02
    -21.200  0.3601E+02  0.3265E+02
    -21.186  0.3623E+02  0.3316E+02
    -21.172  0.3648E+02  0.3367E+02
    -21.158  0.3673E+02  0.3418E+02
    -21.144  0.3701E+02  0.3470E+02
    -21.130  0.3729E+02  0.3522E+02
    -21.116  0.3759E+02  0.3574E+02
    -21.102  0.3790E+02  0.3627E+02
    -21.088  0.3822E+02  0.3680E+02
    -21.074  0.3854E+02  0.3734E+02
    -21.060  0.3885E+02  0.3788E+02
    -21.046  0.3917E+02  0.3843E+02
    -21.032  0.3947E+02  0.3898E+02
    -21.018  0.3977E+02  0.3954E+02
    -21.004  0.4004E+02  0.4009E+02
    -20.990  0.4030E+02  0.4066E+02
    -20.976  0.4052E+02  0.4122E+02
    -20.962  0.4072E+02  0.4179E+02
    -20.948  0.4089E+02  0.4236E+02
    -20.934  0.4102E+02  0.4293E+02
    -20.921  0.4111E+02  0.4351E+02
    -20.907  0.4116E+02  0.4408E+02
    -20.893  0.4118E+02  0.4465E+02
    -20.879  0.4116E+02  0.4523E+02
    -20.865  0.4110E+02  0.4580E+02
    -20.851  0.4101E+02  0.4637E+02
    -20.837  0.4089E+02  0.4694E+02
    -20.823  0.4075E+02  0.4751E+02
    -20.809  0.4058E+02  0.4808E+02
    -20.795  0.4040E+02  0.4864E+02
    -20.781  0.4020E+02  0.4920E+02
    -20.767  0.4000E+02  0.4976E+02
    -20.753  0.3979E+02  0.5032E+02
    -20.739  0.3959E+02  0.5087E+02
    -20.725  0.3938E+02  0.5142E+02
    -20.711  0.3919E+02  0.5196E+02
    -20.697  0.3900E+02  0.5251E+02
    -20.683  0.3882E+02  0.5305E+02
    -20.669  0.3866E+02  0.5359E+02
    -20.655  0.3851E+02  0.5413E+02
    -20.642  0.3837E+02  0.5466E+02
    -20.628  0.3824E+02  0.5519E+02
    -20.614  0.3812E+02  0.5573E+02
    -20.600  0.3802E+02  0.5626E+02
    -20.586  0.3792E+02  0.5679E+02
    -20.572  0.3784E+02  0.5731E+02
    -20.558  0.3776E+02  0.5784E+02
    -20.544  0.3770E+02  0.5837E+02
    -20.530  0.3765E+02  0.5889E+02
    -20.516  0.3761E+02  0.5942E+02
    -20.502  0.3758E+02  0.5994E+02
    -20.488  0.3756E+02  0.6046E+02
    -20.474  0.3756E+02  0.6099E+02
    -20.460  0.3758E+02  0.6151E+02
    -20.446  0.3761E+02  0.6204E+02
    -20.432  0.3766E+02  0.6256E+02
    -20.418  0.3772E+02  0.6309E+02
    -20.404  0.3780E+02  0.6362E+02
    -20.390  0.3790E+02  0.6414E+02
    -20.376  0.3801E+02  0.6467E+02
    -20.363  0.3813E+02  0.6521E+02
    -20.349  0.3827E+02  0.6574E+02
    -20.335  0.3842E+02  0.6628E+02
    -20.321  0.3856E+02  0.6681E+02
    -20.307  0.3872E+02  0.6735E+02
    -20.293  0.3887E+02  0.6790E+02
    -20.279  0.3901E+02  0.6844E+02
    -20.265  0.3915E+02  0.6899E+02
    -20.251  0.3928E+02  0.6953E+02
    -20.237  0.3939E+02  0.7008E+02
    -20.223  0.3949E+02  0.7064E+02
    -20.209  0.3957E+02  0.7119E+02
    -20.195  0.3963E+02  0.7174E+02
    -20.181  0.3966E+02  0.7229E+02
    -20.167  0.3967E+02  0.7285E+02
    -20.153  0.3966E+02  0.7340E+02
    -20.139  0.3963E+02  0.7395E+02
    -20.125  0.3957E+02  0.7450E+02
    -20.111  0.3949E+02  0.7506E+02
    -20.097  0.3939E+02  0.7560E+02
    -20.084  0.3927E+02  0.7615E+02
    -20.070  0.3913E+02  0.7670E+02
    -20.056  0.3899E+02  0.7724E+02
    -20.042  0.3883E+02  0.7778E+02
    -20.028  0.3867E+02  0.7832E+02
    -20.014  0.3851E+02  0.7886E+02
    -20.000  0.3835E+02  0.7940E+02
    -19.986  0.3820E+02  0.7993E+02
    -19.972  0.3806E+02  0.8046E+02
    -19.958  0.3792E+02  0.8099E+02
    -19.944  0.3781E+02  0.8152E+02
    -19.930  0.3771E+02  0.8204E+02
    -19.916  0.3763E+02  0.8257E+02
    -19.902  0.3758E+02  0.8309E+02
    -19.888  0.3754E+02  0.8361E+02
    -19.874  0.3754E+02  0.8414E+02
    -19.860  0.3755E+02  0.8466E+02
    -19.846  0.3759E+02  0.8519E+02
    -19.832  0.3765E+02  0.8571E+02
    -19.819  0.3774E+02  0.8624E+02
    -19.805  0.3785E+02  0.8677E+02
    -19.791  0.3798E+02  0.8730E+02
    -19.777  0.3812E+02  0.8783E+02
    -19.763  0.3829E+02  0.8836E+02
    -19.749  0.3847E+02  0.8890E+02
    -19.735  0.3866E+02  0.8944E+02
    -19.721  0.3887E+02  0.8998E+02
    -19.707  0.3908E+02  0.9053E+02
    -19.693  0.3930E+02  0.9107E+02
    -19.679  0.3952E+02  0.9162E+02
    -19.665  0.3974E+02  0.9218E+02
    -19.651  0.3995E+02  0.9274E+02
    -19.637  0.4016E+02  0.9330E+02
    -19.623  0.4036E+02  0.9386E+02
    -19.609  0.4054E+02  0.9442E+02
    -19.595  0.4071E+02  0.9499E+02
    -19.581  0.4086E+02  0.9556E+02
    -19.567  0.4099E+02  0.9613E+02
    -19.553  0.4111E+02  0.9671E+02
    -19.540  0.4121E+02  0.9728E+02
    -19.526  0.4129E+02  0.9786E+02
    -19.512  0.4136E+02  0.9844E+02
    -19.498  0.4141E+02  0.9901E+02
    -19.484  0.4146E+02  0.9959E+02
    -19.470  0.4150E+02  0.1002E+03
    -19.456  0.4154E+02  0.1007E+03
    -19.442  0.4158E+02  0.1013E+03
    -19.428  0.4163E+02  0.1019E+03
    -19.414  0.4169E+02  0.1025E+03
    -19.400  0.4175E+02  0.1031E+03
    -19.386  0.4183E+02  0.1037E+03
    -19.372  0.4191E+02  0.1042E+03
    -19.358  0.4201E+02  0.1048E+03
    -19.344  0.4212E+02  0.1054E+03
    -19.330  0.4223E+02  0.1060E+03
    -19.316  0.4234E+02  0.1066E+03
    -19.302  0.4245E+02  0.1072E+03
    -19.288  0.4255E+02  0.1078E+03
    -19.274  0.4264E+02  0.1084E+03
    -19.261  0.4272E+02  0.1090E+03
    -19.247  0.4278E+02  0.1096E+03
    -19.233  0.4281E+02  0.1102E+03
    -19.219  0.4283E+02  0.1108E+03
    -19.205  0.4282E+02  0.1114E+03
    -19.191  0.4279E+02  0.1120E+03
    -19.177  0.4273E+02  0.1126E+03
    -19.163  0.4266E+02  0.1131E+03
    -19.149  0.4257E+02  0.1137E+03
    -19.135  0.4247E+02  0.1143E+03
    -19.121  0.4236E+02  0.1149E+03
    -19.107  0.4226E+02  0.1155E+03
    -19.093  0.4215E+02  0.1161E+03
    -19.079  0.4206E+02  0.1167E+03
    -19.065  0.4198E+02  0.1173E+03
    -19.051  0.4193E+02  0.1179E+03
    -19.037  0.4190E+02  0.1184E+03
    -19.023  0.4189E+02  0.1190E+03
    -19.009  0.4192E+02  0.1196E+03
    -18.995  0.4197E+02  0.1202E+03
    -18.982  0.4206E+02  0.1208E+03
    -18.968  0.4217E+02  0.1214E+03
    -18.954  0.4231E+02  0.1220E+03
    -18.940  0.4247E+02  0.1226E+03
    -18.926  0.4264E+02  0.1232E+03
    -18.912  0.4283E+02  0.1237E+03
    -18.898  0.4303E+02  0.1244E+03
    -18.884  0.4322E+02  0.1250E+03
    -18.870  0.4341E+02  0.1256E+03
    -18.856  0.4359E+02  0.1262E+03
    -18.842  0.4375E+02  0.1268E+03
    -18.828  0.4389E+02  0.1274E+03
    -18.814  0.4401E+02  0.1280E+03
    -18.800  0.4410E+02  0.1286E+03
    -18.786  0.4416E+02  0.1292E+03
    -18.772  0.4418E+02  0.1299E+03
    -18.758  0.4418E+02  0.1305E+03
    -18.744  0.4415E+02  0.1311E+03
    -18.730  0.4410E+02  0.1317E+03
    -18.716  0.4402E+02  0.1323E+03
    -18.703  0.4392E+02  0.1329E+03
    -18.689  0.4380E+02  0.1335E+03
    -18.675  0.4367E+02  0.1341E+03
    -18.661  0.4354E+02  0.1348E+03
    -18.647  0.4340E+02  0.1354E+03
    -18.633  0.4327E+02  0.1360E+03
    -18.619  0.4315E+02  0.1366E+03
    -18.605  0.4303E+02  0.1372E+03
    -18.591  0.4294E+02  0.1378E+03
    -18.577  0.4286E+02  0.1384E+03
    -18.563  0.4280E+02  0.1390E+03
    -18.549  0.4277E+02  0.1396E+03
    -18.535  0.4276E+02  0.1402E+03
    -18.521  0.4277E+02  0.1407E+03
    -18.507  0.4281E+02  0.1413E+03
    -18.493  0.4287E+02  0.1419E+03
    -18.479  0.4296E+02  0.1425E+03
    -18.465  0.4308E+02  0.1431E+03
    -18.451  0.4321E+02  0.1437E+03
    -18.437  0.4337E+02  0.1444E+03
    -18.424  0.4355E+02  0.1450E+03
    -18.410  0.4375E+02  0.1456E+03
    -18.396  0.4396E+02  0.1462E+03
    -18.382  0.4418E+02  0.1468E+03
    -18.368  0.4442E+02  0.1474E+03
    -18.354  0.4466E+02  0.1480E+03
    -18.340  0.4491E+02  0.1487E+03
    -18.326  0.4516E+02  0.1493E+03
    -18.312  0.4540E+02  0.1499E+03
    -18.298  0.4563E+02  0.1506E+03
    -18.284  0.4585E+02  0.1512E+03
    -18.270  0.4605E+02  0.1518E+03
    -18.256  0.4623E+02  0.1525E+03
    -18.242  0.4638E+02  0.1531E+03
    -18.228  0.4650E+02  0.1538E+03
    -18.214  0.4660E+02  0.1544E+03
    -18.200  0.4666E+02  0.1551E+03
    -18.186  0.4669E+02  0.1557E+03
    -18.172  0.4670E+02  0.1564E+03
    -18.159  0.4667E+02  0.1570E+03
    -18.145  0.4663E+02  0.1577E+03
    -18.131  0.4656E+02  0.1583E+03
    -18.117  0.4649E+02  0.1590E+03
    -18.103  0.4640E+02  0.1596E+03
    -18.089  0.4631E+02  0.1603E+03
    -18.075  0.4622E+02  0.1609E+03
    -18.061  0.4614E+02  0.1616E+03
    -18.047  0.4608E+02  0.1622E+03
    -18.033  0.4603E+02  0.1629E+03
    -18.019  0.4600E+02  0.1635E+03
    -18.005  0.4601E+02  0.1641E+03
    -17.991  0.4603E+02  0.1648E+03
    -17.977  0.4609E+02  0.1654E+03
    -17.963  0.4617E+02  0.1661E+03
    -17.949  0.4628E+02  0.1667E+03
    -17.935  0.4642E+02  0.1674E+03
    -17.921  0.4657E+02  0.1680E+03
    -17.907  0.4674E+02  0.1687E+03
    -17.893  0.4692E+02  0.1693E+03
    -17.880  0.4711E+02  0.1700E+03
    -17.866  0.4730E+02  0.1706E+03
    -17.852  0.4749E+02  0.1713E+03
    -17.838  0.4766E+02  0.1720E+03
    -17.824  0.4782E+02  0.1726E+03
    -17.810  0.4797E+02  0.1733E+03
    -17.796  0.4809E+02  0.1740E+03
    -17.782  0.4818E+02  0.1746E+03
    -17.768  0.4824E+02  0.1753E+03
    -17.754  0.4827E+02  0.1760E+03
    -17.740  0.4826E+02  0.1767E+03
    -17.726  0.4822E+02  0.1773E+03
    -17.712  0.4814E+02  0.1780E+03
    -17.698  0.4803E+02  0.1787E+03
    -17.684  0.4788E+02  0.1793E+03
    -17.670  0.4770E+02  0.1800E+03
    -17.656  0.4749E+02  0.1807E+03
    -17.642  0.4726E+02  0.1813E+03
    -17.628  0.4700E+02  0.1820E+03
    -17.614  0.4672E+02  0.1826E+03
    -17.601  0.4643E+02  0.1833E+03
    -17.587  0.4613E+02  0.1839E+03
    -17.573  0.4582E+02  0.1846E+03
    -17.559  0.4552E+02  0.1852E+03
    -17.545  0.4523E+02  0.1858E+03
    -17.531  0.4494E+02  0.1865E+03
    -17.517  0.4468E+02  0.1871E+03
    -17.503  0.4443E+02  0.1877E+03
    -17.489  0.4421E+02  0.1883E+03
    -17.475  0.4402E+02  0.1889E+03
    -17.461  0.4385E+02  0.1895E+03
    -17.447  0.4371E+02  0.1902E+03
    -17.433  0.4360E+02  0.1908E+03
    -17.419  0.4352E+02  0.1914E+03
    -17.405  0.4347E+02  0.1920E+03
    -17.391  0.4344E+02  0.1926E+03
    -17.377  0.4342E+02  0.1932E+03
    -17.363  0.4343E+02  0.1938E+03
    -17.349  0.4345E+02  0.1944E+03
    -17.335  0.4347E+02  0.1950E+03
    -17.322  0.4350E+02  0.1956E+03
    -17.308  0.4353E+02  0.1962E+03
    -17.294  0.4355E+02  0.1968E+03
    -17.280  0.4357E+02  0.1974E+03
    -17.266  0.4358E+02  0.1980E+03
    -17.252  0.4357E+02  0.1987E+03
    -17.238  0.4354E+02  0.1993E+03
    -17.224  0.4349E+02  0.1999E+03
    -17.210  0.4342E+02  0.2005E+03
    -17.196  0.4332E+02  0.2011E+03
    -17.182  0.4319E+02  0.2017E+03
    -17.168  0.4303E+02  0.2023E+03
    -17.154  0.4284E+02  0.2029E+03
    -17.140  0.4262E+02  0.2035E+03
    -17.126  0.4237E+02  0.2041E+03
    -17.112  0.4208E+02  0.2047E+03
    -17.098  0.4178E+02  0.2052E+03
    -17.084  0.4144E+02  0.2058E+03
    -17.070  0.4109E+02  0.2064E+03
    -17.056  0.4072E+02  0.2070E+03
    -17.043  0.4033E+02  0.2075E+03
    -17.029  0.3994E+02  0.2081E+03
    -17.015  0.3953E+02  0.2086E+03
    -17.001  0.3913E+02  0.2092E+03
    -16.987  0.3873E+02  0.2097E+03
    -16.973  0.3834E+02  0.2102E+03
    -16.959  0.3795E+02  0.2108E+03
    -16.945  0.3757E+02  0.2113E+03
    -16.931  0.3720E+02  0.2118E+03
    -16.917  0.3684E+02  0.2123E+03
    -16.903  0.3650E+02  0.2128E+03
    -16.889  0.3616E+02  0.2133E+03
    -16.875  0.3584E+02  0.2138E+03
    -16.861  0.3552E+02  0.2143E+03
    -16.847  0.3522E+02  0.2148E+03
    -16.833  0.3492E+02  0.2153E+03
    -16.819  0.3463E+02  0.2158E+03
    -16.805  0.3435E+02  0.2163E+03
    -16.791  0.3408E+02  0.2168E+03
    -16.777  0.3381E+02  0.2172E+03
    -16.764  0.3356E+02  0.2177E+03
    -16.750  0.3331E+02  0.2182E+03
    -16.736  0.3308E+02  0.2186E+03
    -16.722  0.3286E+02  0.2191E+03
    -16.708  0.3266E+02  0.2195E+03
    -16.694  0.3248E+02  0.2200E+03
    -16.680  0.3231E+02  0.2204E+03
    -16.666  0.3216E+02  0.2209E+03
    -16.652  0.3204E+02  0.2213E+03
    -16.638  0.3194E+02  0.2218E+03
    -16.624  0.3185E+02  0.2222E+03
    -16.610  0.3179E+02  0.2227E+03
    -16.596  0.3175E+02  0.2231E+03
    -16.582  0.3173E+02  0.2236E+03
    -16.568  0.3173E+02  0.2240E+03
    -16.554  0.3174E+02  0.2244E+03
    -16.540  0.3176E+02  0.2249E+03
    -16.526  0.3180E+02  0.2253E+03
    -16.512  0.3185E+02  0.2258E+03
    -16.498  0.3190E+02  0.2262E+03
    -16.485  0.3196E+02  0.2267E+03
    -16.471  0.3202E+02  0.2271E+03
    -16.457  0.3209E+02  0.2276E+03
    -16.443  0.3215E+02  0.2280E+03
    -16.429  0.3222E+02  0.2285E+03
    -16.415  0.3229E+02  0.2289E+03
    -16.401  0.3235E+02  0.2294E+03
    -16.387  0.3242E+02  0.2298E+03
    -16.373  0.3248E+02  0.2303E+03
    -16.359  0.3255E+02  0.2307E+03
    -16.345  0.3262E+02  0.2312E+03
    -16.331  0.3270E+02  0.2316E+03
    -16.317  0.3279E+02  0.2321E+03
    -16.303  0.3288E+02  0.2325E+03
    -16.289  0.3299E+02  0.2330E+03
    -16.275  0.3311E+02  0.2335E+03
    -16.261  0.3324E+02  0.2339E+03
    -16.247  0.3338E+02  0.2344E+03
    -16.233  0.3354E+02  0.2349E+03
    -16.220  0.3371E+02  0.2353E+03
    -16.206  0.3389E+02  0.2358E+03
    -16.192  0.3409E+02  0.2363E+03
    -16.178  0.3429E+02  0.2368E+03
    -16.164  0.3451E+02  0.2372E+03
    -16.150  0.3473E+02  0.2377E+03
    -16.136  0.3495E+02  0.2382E+03
    -16.122  0.3518E+02  0.2387E+03
    -16.108  0.3540E+02  0.2392E+03
    -16.094  0.3562E+02  0.2397E+03
    -16.080  0.3584E+02  0.2402E+03
    -16.066  0.3606E+02  0.2407E+03
    -16.052  0.3627E+02  0.2412E+03
    -16.038  0.3647E+02  0.2417E+03
    -16.024  0.3667E+02  0.2422E+03
    -16.010  0.3686E+02  0.2427E+03
    -15.996  0.3705E+02  0.2433E+03
    -15.982  0.3724E+02  0.2438E+03
    -15.968  0.3742E+02  0.2443E+03
    -15.954  0.3761E+02  0.2448E+03
    -15.941  0.3779E+02  0.2453E+03
    -15.927  0.3798E+02  0.2459E+03
    -15.913  0.3818E+02  0.2464E+03
    -15.899  0.3838E+02  0.2469E+03
    -15.885  0.3859E+02  0.2475E+03
    -15.871  0.3881E+02  0.2480E+03
    -15.857  0.3904E+02  0.2486E+03
    -15.843  0.3926E+02  0.2491E+03
    -15.829  0.3950E+02  0.2497E+03
    -15.815  0.3973E+02  0.2502E+03
    -15.801  0.3997E+02  0.2508E+03
    -15.787  0.4020E+02  0.2513E+03
    -15.773  0.4042E+02  0.2519E+03
    -15.759  0.4063E+02  0.2525E+03
    -15.745  0.4083E+02  0.2530E+03
    -15.731  0.4101E+02  0.2536E+03
    -15.717  0.4118E+02  0.2542E+03
    -15.703  0.4132E+02  0.2548E+03
    -15.689  0.4143E+02  0.2553E+03
    -15.675  0.4152E+02  0.2559E+03
    -15.662  0.4159E+02  0.2565E+03
    -15.648  0.4163E+02  0.2571E+03
    -15.634  0.4164E+02  0.2577E+03
    -15.620  0.4163E+02  0.2582E+03
    -15.606  0.4159E+02  0.2588E+03
    -15.592  0.4154E+02  0.2594E+03
    -15.578  0.4147E+02  0.2600E+03
    -15.564  0.4140E+02  0.2606E+03
    -15.550  0.4131E+02  0.2611E+03
    -15.536  0.4123E+02  0.2617E+03
    -15.522  0.4116E+02  0.2623E+03
    -15.508  0.4109E+02  0.2629E+03
    -15.494  0.4105E+02  0.2634E+03
    -15.480  0.4103E+02  0.2640E+03
    -15.466  0.4104E+02  0.2646E+03
    -15.452  0.4108E+02  0.2651E+03
    -15.438  0.4116E+02  0.2657E+03
    -15.424  0.4129E+02  0.2663E+03
    -15.410  0.4146E+02  0.2669E+03
    -15.396  0.4168E+02  0.2675E+03
    -15.383  0.4195E+02  0.2680E+03
    -15.369  0.4227E+02  0.2686E+03
    -15.355  0.4263E+02  0.2692E+03
    -15.341  0.4304E+02  0.2698E+03
    -15.327  0.4348E+02  0.2704E+03
    -15.313  0.4396E+02  0.2710E+03
    -15.299  0.4447E+02  0.2717E+03
    -15.285  0.4501E+02  0.2723E+03
    -15.271  0.4555E+02  0.2729E+03
    -15.257  0.4611E+02  0.2736E+03
    -15.243  0.4667E+02  0.2742E+03
    -15.229  0.4723E+02  0.2749E+03
    -15.215  0.4777E+02  0.2756E+03
    -15.201  0.4830E+02  0.2762E+03
    -15.187  0.4879E+02  0.2769E+03
    -15.173  0.4925E+02  0.2776E+03
    -15.159  0.4968E+02  0.2783E+03
    -15.145  0.5005E+02  0.2790E+03
    -15.131  0.5038E+02  0.2797E+03
    -15.117  0.5066E+02  0.2804E+03
    -15.104  0.5087E+02  0.2811E+03
    -15.090  0.5103E+02  0.2818E+03
    -15.076  0.5113E+02  0.2825E+03
    -15.062  0.5116E+02  0.2832E+03
    -15.048  0.5114E+02  0.2840E+03
    -15.034  0.5105E+02  0.2847E+03
    -15.020  0.5091E+02  0.2854E+03
    -15.006  0.5072E+02  0.2861E+03
    -14.992  0.5048E+02  0.2868E+03
    -14.978  0.5019E+02  0.2875E+03
    -14.964  0.4987E+02  0.2882E+03
    -14.950  0.4952E+02  0.2889E+03
    -14.936  0.4914E+02  0.2896E+03
    -14.922  0.4874E+02  0.2902E+03
    -14.908  0.4832E+02  0.2909E+03
    -14.894  0.4791E+02  0.2916E+03
    -14.880  0.4748E+02  0.2922E+03
    -14.866  0.4707E+02  0.2929E+03
    -14.852  0.4665E+02  0.2936E+03
    -14.838  0.4625E+02  0.2942E+03
    -14.825  0.4586E+02  0.2948E+03
    -14.811  0.4549E+02  0.2955E+03
    -14.797  0.4513E+02  0.2961E+03
    -14.783  0.4479E+02  0.2967E+03
    -14.769  0.4446E+02  0.2973E+03
    -14.755  0.4416E+02  0.2980E+03
    -14.741  0.4387E+02  0.2986E+03
    -14.727  0.4359E+02  0.2992E+03
    -14.713  0.4334E+02  0.2998E+03
    -14.699  0.4311E+02  0.3004E+03
    -14.685  0.4289E+02  0.3010E+03
    -14.671  0.4269E+02  0.3016E+03
    -14.657  0.4252E+02  0.3022E+03
    -14.643  0.4237E+02  0.3028E+03
    -14.629  0.4224E+02  0.3034E+03
    -14.615  0.4214E+02  0.3039E+03
    -14.601  0.4206E+02  0.3045E+03
    -14.587  0.4201E+02  0.3051E+03
    -14.573  0.4200E+02  0.3057E+03
    -14.559  0.4201E+02  0.3063E+03
    -14.546  0.4205E+02  0.3069E+03
    -14.532  0.4212E+02  0.3075E+03
    -14.518  0.4223E+02  0.3081E+03
    -14.504  0.4236E+02  0.3086E+03
    -14.490  0.4251E+02  0.3092E+03
    -14.476  0.4269E+02  0.3098E+03
    -14.462  0.4289E+02  0.3104E+03
    -14.448  0.4310E+02  0.3110E+03
    -14.434  0.4332E+02  0.3116E+03
    -14.420  0.4354E+02  0.3122E+03
    -14.406  0.4377E+02  0.3129E+03
    -14.392  0.4399E+02  0.3135E+03
    -14.378  0.4421E+02  0.3141E+03
    -14.364  0.4441E+02  0.3147E+03
    -14.350  0.4459E+02  0.3153E+03
    -14.336  0.4476E+02  0.3159E+03
    -14.322  0.4490E+02  0.3166E+03
    -14.308  0.4501E+02  0.3172E+03
    -14.294  0.4510E+02  0.3178E+03
    -14.281  0.4516E+02  0.3185E+03
    -14.267  0.4518E+02  0.3191E+03
    -14.253  0.4518E+02  0.3197E+03
    -14.239  0.4515E+02  0.3204E+03
    -14.225  0.4508E+02  0.3210E+03
    -14.211  0.4498E+02  0.3216E+03
    -14.197  0.4486E+02  0.3222E+03
    -14.183  0.4470E+02  0.3229E+03
    -14.169  0.4451E+02  0.3235E+03
    -14.155  0.4429E+02  0.3241E+03
    -14.141  0.4405E+02  0.3247E+03
    -14.127  0.4378E+02  0.3253E+03
    -14.113  0.4348E+02  0.3259E+03
    -14.099  0.4317E+02  0.3265E+03
    -14.085  0.4284E+02  0.3271E+03
    -14.071  0.4249E+02  0.3277E+03
    -14.057  0.4214E+02  0.3283E+03
    -14.043  0.4179E+02  0.3289E+03
    -14.029  0.4143E+02  0.3295E+03
    -14.015  0.4109E+02  0.3300E+03
    -14.002  0.4076E+02  0.3306E+03
    -13.988  0.4045E+02  0.3312E+03
    -13.974  0.4016E+02  0.3317E+03
    -13.960  0.3990E+02  0.3323E+03
    -13.946  0.3966E+02  0.3328E+03
    -13.932  0.3947E+02  0.3334E+03
    -13.918  0.3930E+02  0.3339E+03
    -13.904  0.3916E+02  0.3345E+03
    -13.890  0.3906E+02  0.3350E+03
    -13.876  0.3898E+02  0.3356E+03
    -13.862  0.3893E+02  0.3361E+03
    -13.848  0.3890E+02  0.3367E+03
    -13.834  0.3888E+02  0.3372E+03
    -13.820  0.3887E+02  0.3378E+03
    -13.806  0.3887E+02  0.3383E+03
    -13.792  0.3887E+02  0.3388E+03
    -13.778  0.3886E+02  0.3394E+03
    -13.764  0.3885E+02  0.3399E+03
    -13.750  0.3883E+02  0.3405E+03
    -13.736  0.3881E+02  0.3410E+03
    -13.723  0.3877E+02  0.3415E+03
    -13.709  0.3873E+02  0.3421E+03
    -13.695  0.3869E+02  0.3426E+03
    -13.681  0.3864E+02  0.3432E+03
    -13.667  0.3861E+02  0.3437E+03
    -13.653  0.3858E+02  0.3442E+03
    -13.639  0.3857E+02  0.3448E+03
    -13.625  0.3857E+02  0.3453E+03
    -13.611  0.3860E+02  0.3459E+03
    -13.597  0.3865E+02  0.3464E+03
    -13.583  0.3873E+02  0.3469E+03
    -13.569  0.3884E+02  0.3475E+03
    -13.555  0.3897E+02  0.3480E+03
    -13.541  0.3913E+02  0.3486E+03
    -13.527  0.3931E+02  0.3491E+03
    -13.513  0.3952E+02  0.3497E+03
    -13.499  0.3973E+02  0.3502E+03
    -13.485  0.3996E+02  0.3508E+03
    -13.471  0.4019E+02  0.3513E+03
    -13.457  0.4042E+02  0.3519E+03
    -13.444  0.4065E+02  0.3525E+03
    -13.430  0.4088E+02  0.3530E+03
    -13.416  0.4109E+02  0.3536E+03
    -13.402  0.4130E+02  0.3542E+03
    -13.388  0.4150E+02  0.3548E+03
    -13.374  0.4169E+02  0.3553E+03
    -13.360  0.4187E+02  0.3559E+03
    -13.346  0.4205E+02  0.3565E+03
    -13.332  0.4223E+02  0.3571E+03
    -13.318  0.4240E+02  0.3577E+03
    -13.304  0.4258E+02  0.3583E+03
    -13.290  0.4276E+02  0.3589E+03
    -13.276  0.4294E+02  0.3595E+03
    -13.262  0.4314E+02  0.3601E+03
    -13.248  0.4334E+02  0.3607E+03
    -13.234  0.4356E+02  0.3613E+03
    -13.220  0.4378E+02  0.3619E+03
    -13.206  0.4401E+02  0.3625E+03
    -13.192  0.4424E+02  0.3631E+03
    -13.178  0.4448E+02  0.3638E+03
    -13.165  0.4472E+02  0.3644E+03
    -13.151  0.4496E+02  0.3650E+03
    -13.137  0.4520E+02  0.3656E+03
    -13.123  0.4543E+02  0.3663E+03
    -13.109  0.4564E+02  0.3669E+03
    -13.095  0.4585E+02  0.3676E+03
    -13.081  0.4604E+02  0.3682E+03
    -13.067  0.4622E+02  0.3688E+03
    -13.053  0.4637E+02  0.3695E+03
    -13.039  0.4651E+02  0.3701E+03
    -13.025  0.4663E+02  0.3708E+03
    -13.011  0.4672E+02  0.3714E+03
    -12.997  0.4679E+02  0.3721E+03
    -12.983  0.4683E+02  0.3727E+03
    -12.969  0.4684E+02  0.3734E+03
    -12.955  0.4683E+02  0.3741E+03
    -12.941  0.4679E+02  0.3747E+03
    -12.927  0.4672E+02  0.3754E+03
    -12.913  0.4661E+02  0.3760E+03
    -12.899  0.4648E+02  0.3767E+03
    -12.886  0.4632E+02  0.3773E+03
    -12.872  0.4613E+02  0.3779E+03
    -12.858  0.4591E+02  0.3786E+03
    -12.844  0.4566E+02  0.3792E+03
    -12.830  0.4539E+02  0.3799E+03
    -12.816  0.4510E+02  0.3805E+03
    -12.802  0.4480E+02  0.3811E+03
    -12.788  0.4449E+02  0.3817E+03
    -12.774  0.4417E+02  0.3823E+03