 233 233   0   0
  0.5473539E+02  0.2930928E-08  0.2175650E-08  0.2000000E-08  0.5000000E-15
  1.000000000000000E-004
  CAR 
 unknown system                          
      3.01622570    -24.42135127 2000     -3.85113826      1.00000000
    -24.421  0.0000E+00  0.0000E+00
    -24.408  0.0000E+00  0.0000E+00
    -24.394  0.0000E+00  0.0000E+00
    -24.380  0.0000E+00  0.0000E+00
    -24.366  0.0000E+00  0.0000E+00
    -24.353  0.0000E+00  0.0000E+00
    -24.339  0.0000E+00  0.0000E+00
    -24.325  0.0000E+00  0.0000E+00
    -24.312  0.0000E+00  0.0000E+00
    -24.298  0.0000E+00  0.0000E+00
    -24.284  0.0000E+00  0.0000E+00
    -24.270  0.0000E+00  0.0000E+00
    -24.257  0.0000E+00  0.0000E+00
    -24.243  0.0000E+00  0.0000E+00
    -24.229  0.0000E+00  0.0000E+00
    -24.215  0.0000E+00  0.0000E+00
    -24.202  0.0000E+00  0.0000E+00
    -24.188  0.0000E+00  0.0000E+00
    -24.174  0.0000E+00  0.0000E+00
    -24.161  0.0000E+00  0.0000E+00
    -24.147  0.0000E+00  0.0000E+00
    -24.133  0.0000E+00  0.0000E+00
    -24.119  0.0000E+00  0.0000E+00
    -24.106  0.0000E+00  0.0000E+00
    -24.092  0.0000E+00  0.0000E+00
    -24.078  0.0000E+00  0.0000E+00
    -24.064  0.0000E+00  0.0000E+00
    -24.051  0.0000E+00  0.0000E+00
    -24.037  0.0000E+00  0.0000E+00
    -24.023  0.0000E+00  0.0000E+00
    -24.010  0.0000E+00  0.0000E+00
    -23.996  0.0000E+00  0.0000E+00
    -23.982  0.0000E+00  0.0000E+00
    -23.968  0.0000E+00  0.0000E+00
    -23.955  0.0000E+00  0.0000E+00
    -23.941  0.0000E+00  0.0000E+00
    -23.927  0.0000E+00  0.0000E+00
    -23.914  0.0000E+00  0.0000E+00
    -23.900  0.0000E+00  0.0000E+00
    -23.886  0.0000E+00  0.0000E+00
    -23.872  0.0000E+00  0.0000E+00
    -23.859  0.0000E+00  0.0000E+00
    -23.845  0.0000E+00  0.0000E+00
    -23.831  0.0000E+00  0.0000E+00
    -23.817  0.0000E+00  0.0000E+00
    -23.804  0.0000E+00  0.0000E+00
    -23.790  0.0000E+00  0.0000E+00
    -23.776  0.0000E+00  0.0000E+00
    -23.763  0.0000E+00  0.0000E+00
    -23.749  0.0000E+00  0.0000E+00
    -23.735  0.0000E+00  0.0000E+00
    -23.721  0.0000E+00  0.0000E+00
    -23.708  0.0000E+00  0.0000E+00
    -23.694  0.0000E+00  0.0000E+00
    -23.680  0.0000E+00  0.0000E+00
    -23.666  0.0000E+00  0.0000E+00
    -23.653  0.0000E+00  0.0000E+00
    -23.639  0.0000E+00  0.0000E+00
    -23.625  0.0000E+00  0.0000E+00
    -23.612  0.0000E+00  0.0000E+00
    -23.598  0.8089E-14  0.1110E-15
    -23.584  0.8089E-14  0.2220E-15
    -23.570  0.1078E-13  0.3701E-15
    -23.557  0.4044E-13  0.9252E-15
    -23.543  0.7819E-13  0.1998E-14
    -23.529  0.1663E-12  0.4281E-14
    -23.515  0.3622E-12  0.9252E-14
    -23.502  0.7702E-12  0.1982E-13
    -23.488  0.1614E-11  0.4198E-13
    -23.474  0.3360E-11  0.8810E-13
    -23.461  0.6920E-11  0.1831E-12
    -23.447  0.1415E-10  0.3773E-12
    -23.433  0.2862E-10  0.7701E-12
    -23.419  0.5737E-10  0.1558E-11
    -23.406  0.1139E-09  0.3121E-11
    -23.392  0.2241E-09  0.6197E-11
    -23.378  0.4368E-09  0.1219E-10
    -23.364  0.8433E-09  0.2377E-10
    -23.351  0.1613E-08  0.4591E-10
    -23.337  0.3056E-08  0.8785E-10
    -23.323  0.5737E-08  0.1666E-09
    -23.310  0.1067E-07  0.3130E-09
    -23.296  0.1965E-07  0.5828E-09
    -23.282  0.3587E-07  0.1075E-08
    -23.268  0.6486E-07  0.1965E-08
    -23.255  0.1162E-06  0.3560E-08
    -23.241  0.2062E-06  0.6390E-08
    -23.227  0.3625E-06  0.1137E-07
    -23.213  0.6313E-06  0.2003E-07
    -23.200  0.1089E-05  0.3498E-07
    -23.186  0.1862E-05  0.6055E-07
    -23.172  0.3154E-05  0.1038E-06
    -23.159  0.5292E-05  0.1765E-06
    -23.145  0.8798E-05  0.2972E-06
    -23.131  0.1449E-04  0.4961E-06
    -23.117  0.2364E-04  0.8206E-06
    -23.104  0.3822E-04  0.1345E-05
    -23.090  0.6121E-04  0.2185E-05
    -23.076  0.9713E-04  0.3518E-05
    -23.063  0.1527E-03  0.5614E-05
    -23.049  0.2379E-03  0.8879E-05
    -23.035  0.3671E-03  0.1392E-04
    -23.021  0.5613E-03  0.2162E-04
    -23.008  0.8505E-03  0.3330E-04
    -22.994  0.1277E-02  0.5082E-04
    -22.980  0.1899E-02  0.7689E-04
    -22.966  0.2799E-02  0.1153E-03
    -22.953  0.4087E-02  0.1714E-03
    -22.939  0.5915E-02  0.2526E-03
    -22.925  0.8481E-02  0.3690E-03
    -22.912  0.1205E-01  0.5344E-03
    -22.898  0.1697E-01  0.7673E-03
    -22.884  0.2367E-01  0.1092E-02
    -22.870  0.3274E-01  0.1542E-02
    -22.857  0.4486E-01  0.2157E-02
    -22.843  0.6092E-01  0.2993E-02
    -22.829  0.8200E-01  0.4119E-02
    -22.815  0.1094E+00  0.5620E-02
    -22.802  0.1446E+00  0.7605E-02
    -22.788  0.1895E+00  0.1021E-01
    -22.774  0.2462E+00  0.1359E-01
    -22.761  0.3171E+00  0.1794E-01
    -22.747  0.4048E+00  0.2349E-01
    -22.733  0.5123E+00  0.3053E-01
    -22.719  0.6429E+00  0.3935E-01
    -22.706  0.7998E+00  0.5033E-01
    -22.692  0.9868E+00  0.6387E-01
    -22.678  0.1207E+01  0.8044E-01
    -22.664  0.1465E+01  0.1006E+00
    -22.651  0.1763E+01  0.1248E+00
    -22.637  0.2105E+01  0.1536E+00
    -22.623  0.2493E+01  0.1879E+00
    -22.610  0.2930E+01  0.2281E+00
    -22.596  0.3418E+01  0.2750E+00
    -22.582  0.3956E+01  0.3293E+00
    -22.568  0.4545E+01  0.3917E+00
    -22.555  0.5185E+01  0.4629E+00
    -22.541  0.5874E+01  0.5435E+00
    -22.527  0.6608E+01  0.6342E+00
    -22.513  0.7386E+01  0.7356E+00
    -22.500  0.8202E+01  0.8481E+00
    -22.486  0.9052E+01  0.9724E+00
    -22.472  0.9931E+01  0.1109E+01
    -22.459  0.1083E+02  0.1257E+01
    -22.445  0.1175E+02  0.1419E+01
    -22.431  0.1268E+02  0.1593E+01
    -22.417  0.1362E+02  0.1780E+01
    -22.404  0.1455E+02  0.1979E+01
    -22.390  0.1548E+02  0.2192E+01
    -22.376  0.1639E+02  0.2417E+01
    -22.363  0.1729E+02  0.2654E+01
    -22.349  0.1816E+02  0.2903E+01
    -22.335  0.1900E+02  0.3164E+01
    -22.321  0.1980E+02  0.3436E+01
    -22.308  0.2057E+02  0.3718E+01
    -22.294  0.2128E+02  0.4011E+01
    -22.280  0.2195E+02  0.4312E+01
    -22.266  0.2256E+02  0.4621E+01
    -22.253  0.2311E+02  0.4939E+01
    -22.239  0.2361E+02  0.5263E+01
    -22.225  0.2403E+02  0.5593E+01
    -22.212  0.2440E+02  0.5927E+01
    -22.198  0.2470E+02  0.6266E+01
    -22.184  0.2494E+02  0.6609E+01
    -22.170  0.2512E+02  0.6954E+01
    -22.157  0.2525E+02  0.7300E+01
    -22.143  0.2534E+02  0.7648E+01
    -22.129  0.2540E+02  0.7997E+01
    -22.115  0.2543E+02  0.8346E+01
    -22.102  0.2544E+02  0.8695E+01
    -22.088  0.2546E+02  0.9044E+01
    -22.074  0.2548E+02  0.9394E+01
    -22.061  0.2552E+02  0.9744E+01
    -22.047  0.2558E+02  0.1010E+02
    -22.033  0.2568E+02  0.1045E+02
    -22.019  0.2582E+02  0.1080E+02
    -22.006  0.2600E+02  0.1116E+02
    -21.992  0.2623E+02  0.1152E+02
    -21.978  0.2650E+02  0.1188E+02
    -21.964  0.2681E+02  0.1225E+02
    -21.951  0.2716E+02  0.1262E+02
    -21.937  0.2754E+02  0.1300E+02
    -21.923  0.2794E+02  0.1338E+02
    -21.910  0.2835E+02  0.1377E+02
    -21.896  0.2877E+02  0.1417E+02
    -21.882  0.2918E+02  0.1457E+02
    -21.868  0.2958E+02  0.1498E+02
    -21.855  0.2997E+02  0.1539E+02
    -21.841  0.3032E+02  0.1580E+02
    -21.827  0.3064E+02  0.1622E+02
    -21.813  0.3093E+02  0.1665E+02
    -21.800  0.3118E+02  0.1708E+02
    -21.786  0.3139E+02  0.1751E+02
    -21.772  0.3156E+02  0.1794E+02
    -21.759  0.3169E+02  0.1837E+02
    -21.745  0.3179E+02  0.1881E+02
    -21.731  0.3186E+02  0.1925E+02
    -21.717  0.3191E+02  0.1969E+02
    -21.704  0.3193E+02  0.2012E+02
    -21.690  0.3193E+02  0.2056E+02
    -21.676  0.3191E+02  0.2100E+02
    -21.662  0.3189E+02  0.2144E+02
    -21.649  0.3185E+02  0.2188E+02
    -21.635  0.3181E+02  0.2231E+02
    -21.621  0.3177E+02  0.2275E+02
    -21.608  0.3172E+02  0.2318E+02
    -21.594  0.3168E+02  0.2362E+02
    -21.580  0.3164E+02  0.2405E+02
    -21.566  0.3160E+02  0.2449E+02
    -21.553  0.3157E+02  0.2492E+02
    -21.539  0.3154E+02  0.2535E+02
    -21.525  0.3152E+02  0.2579E+02
    -21.512  0.3152E+02  0.2622E+02
    -21.498  0.3152E+02  0.2665E+02
    -21.484  0.3154E+02  0.2708E+02
    -21.470  0.3158E+02  0.2752E+02
    -21.457  0.3163E+02  0.2795E+02
    -21.443  0.3171E+02  0.2839E+02
    -21.429  0.3180E+02  0.2882E+02
    -21.415  0.3192E+02  0.2926E+02
    -21.402  0.3206E+02  0.2970E+02
    -21.388  0.3222E+02  0.3014E+02
    -21.374  0.3241E+02  0.3059E+02
    -21.361  0.3263E+02  0.3104E+02
    -21.347  0.3286E+02  0.3149E+02
    -21.333  0.3313E+02  0.3194E+02
    -21.319  0.3341E+02  0.3240E+02
    -21.306  0.3372E+02  0.3286E+02
    -21.292  0.3405E+02  0.3333E+02
    -21.278  0.3438E+02  0.3380E+02
    -21.264  0.3474E+02  0.3428E+02
    -21.251  0.3509E+02  0.3476E+02
    -21.237  0.3545E+02  0.3525E+02
    -21.223  0.3581E+02  0.3574E+02
    -21.210  0.3616E+02  0.3624E+02
    -21.196  0.3649E+02  0.3674E+02
    -21.182  0.3680E+02  0.3724E+02
    -21.168  0.3709E+02  0.3775E+02
    -21.155  0.3735E+02  0.3826E+02
    -21.141  0.3756E+02  0.3878E+02
    -21.127  0.3774E+02  0.3930E+02
    -21.113  0.3787E+02  0.3982E+02
    -21.100  0.3795E+02  0.4034E+02
    -21.086  0.3798E+02  0.4086E+02
    -21.072  0.3795E+02  0.4138E+02
    -21.059  0.3787E+02  0.4190E+02
    -21.045  0.3774E+02  0.4242E+02
    -21.031  0.3756E+02  0.4293E+02
    -21.017  0.3733E+02  0.4344E+02
    -21.004  0.3706E+02  0.4395E+02
    -20.990  0.3675E+02  0.4446E+02
    -20.976  0.3641E+02  0.4496E+02
    -20.962  0.3606E+02  0.4545E+02
    -20.949  0.3568E+02  0.4594E+02
    -20.935  0.3530E+02  0.4643E+02
    -20.921  0.3493E+02  0.4691E+02
    -20.908  0.3456E+02  0.4738E+02
    -20.894  0.3421E+02  0.4785E+02
    -20.880  0.3387E+02  0.4832E+02
    -20.866  0.3357E+02  0.4878E+02
    -20.853  0.3330E+02  0.4923E+02
    -20.839  0.3307E+02  0.4969E+02
    -20.825  0.3288E+02  0.5014E+02
    -20.812  0.3273E+02  0.5059E+02
    -20.798  0.3262E+02  0.5104E+02
    -20.784  0.3256E+02  0.5148E+02
    -20.770  0.3255E+02  0.5193E+02
    -20.757  0.3258E+02  0.5238E+02
    -20.743  0.3265E+02  0.5282E+02
    -20.729  0.3277E+02  0.5327E+02
    -20.715  0.3292E+02  0.5373E+02
    -20.702  0.3311E+02  0.5418E+02
    -20.688  0.3333E+02  0.5464E+02
    -20.674  0.3358E+02  0.5510E+02
    -20.661  0.3384E+02  0.5556E+02
    -20.647  0.3412E+02  0.5603E+02
    -20.633  0.3441E+02  0.5650E+02
    -20.619  0.3469E+02  0.5698E+02
    -20.606  0.3497E+02  0.5746E+02
    -20.592  0.3524E+02  0.5794E+02
    -20.578  0.3548E+02  0.5843E+02
    -20.564  0.3571E+02  0.5892E+02
    -20.551  0.3590E+02  0.5941E+02
    -20.537  0.3606E+02  0.5991E+02
    -20.523  0.3618E+02  0.6041E+02
    -20.510  0.3627E+02  0.6090E+02
    -20.496  0.3632E+02  0.6140E+02
    -20.482  0.3633E+02  0.6190E+02
    -20.468  0.3631E+02  0.6240E+02
    -20.455  0.3626E+02  0.6290E+02
    -20.441  0.3619E+02  0.6339E+02
    -20.427  0.3609E+02  0.6389E+02
    -20.413  0.3599E+02  0.6438E+02
    -20.400  0.3589E+02  0.6487E+02
    -20.386  0.3578E+02  0.6537E+02
    -20.372  0.3569E+02  0.6586E+02
    -20.359  0.3562E+02  0.6634E+02
    -20.345  0.3556E+02  0.6683E+02
    -20.331  0.3554E+02  0.6732E+02
    -20.317  0.3554E+02  0.6781E+02
    -20.304  0.3558E+02  0.6830E+02
    -20.290  0.3565E+02  0.6879E+02
    -20.276  0.3576E+02  0.6928E+02
    -20.262  0.3589E+02  0.6977E+02
    -20.249  0.3606E+02  0.7026E+02
    -20.235  0.3625E+02  0.7076E+02
    -20.221  0.3647E+02  0.7126E+02
    -20.208  0.3670E+02  0.7177E+02
    -20.194  0.3694E+02  0.7227E+02
    -20.180  0.3719E+02  0.7278E+02
    -20.166  0.3744E+02  0.7330E+02
    -20.153  0.3768E+02  0.7381E+02
    -20.139  0.3791E+02  0.7434E+02
    -20.125  0.3812E+02  0.7486E+02
    -20.111  0.3831E+02  0.7538E+02
    -20.098  0.3847E+02  0.7591E+02
    -20.084  0.3860E+02  0.7644E+02
    -20.070  0.3871E+02  0.7697E+02
    -20.057  0.3878E+02  0.7751E+02
    -20.043  0.3881E+02  0.7804E+02
    -20.029  0.3881E+02  0.7857E+02
    -20.015  0.3877E+02  0.7910E+02
    -20.002  0.3870E+02  0.7963E+02
    -19.988  0.3860E+02  0.8016E+02
    -19.974  0.3846E+02  0.8069E+02
    -19.961  0.3830E+02  0.8122E+02
    -19.947  0.3811E+02  0.8174E+02
    -19.933  0.3791E+02  0.8226E+02
    -19.919  0.3768E+02  0.8278E+02
    -19.906  0.3744E+02  0.8329E+02
    -19.892  0.3719E+02  0.8380E+02
    -19.878  0.3694E+02  0.8431E+02
    -19.864  0.3670E+02  0.8481E+02
    -19.851  0.3646E+02  0.8531E+02
    -19.837  0.3623E+02  0.8581E+02
    -19.823  0.3603E+02  0.8631E+02
    -19.810  0.3584E+02  0.8680E+02
    -19.796  0.3569E+02  0.8729E+02
    -19.782  0.3557E+02  0.8778E+02
    -19.768  0.3550E+02  0.8826E+02
    -19.755  0.3546E+02  0.8875E+02
    -19.741  0.3546E+02  0.8924E+02
    -19.727  0.3552E+02  0.8972E+02
    -19.713  0.3561E+02  0.9021E+02
    -19.700  0.3575E+02  0.9070E+02
    -19.686  0.3592E+02  0.9120E+02
    -19.672  0.3613E+02  0.9169E+02
    -19.659  0.3637E+02  0.9219E+02
    -19.645  0.3662E+02  0.9269E+02
    -19.631  0.3689E+02  0.9320E+02
    -19.617  0.3715E+02  0.9371E+02
    -19.604  0.3740E+02  0.9422E+02
    -19.590  0.3764E+02  0.9474E+02
    -19.576  0.3784E+02  0.9526E+02
    -19.562  0.3801E+02  0.9578E+02
    -19.549  0.3813E+02  0.9630E+02
    -19.535  0.3819E+02  0.9683E+02
    -19.521  0.3821E+02  0.9735E+02
    -19.508  0.3817E+02  0.9788E+02
    -19.494  0.3807E+02  0.9840E+02
    -19.480  0.3792E+02  0.9892E+02
    -19.466  0.3773E+02  0.9944E+02
    -19.453  0.3750E+02  0.9995E+02
    -19.439  0.3724E+02  0.1005E+03
    -19.425  0.3697E+02  0.1010E+03
    -19.411  0.3670E+02  0.1015E+03
    -19.398  0.3643E+02  0.1020E+03
    -19.384  0.3619E+02  0.1025E+03
    -19.370  0.3598E+02  0.1030E+03
    -19.357  0.3581E+02  0.1035E+03
    -19.343  0.3569E+02  0.1039E+03
    -19.329  0.3562E+02  0.1044E+03
    -19.315  0.3562E+02  0.1049E+03
    -19.302  0.3568E+02  0.1054E+03
    -19.288  0.3580E+02  0.1059E+03
    -19.274  0.3599E+02  0.1064E+03
    -19.261  0.3622E+02  0.1069E+03
    -19.247  0.3651E+02  0.1074E+03
    -19.233  0.3684E+02  0.1079E+03
    -19.219  0.3721E+02  0.1084E+03
    -19.206  0.3760E+02  0.1089E+03
    -19.192  0.3801E+02  0.1095E+03
    -19.178  0.3843E+02  0.1100E+03
    -19.164  0.3884E+02  0.1105E+03
    -19.151  0.3926E+02  0.1111E+03
    -19.137  0.3966E+02  0.1116E+03
    -19.123  0.4005E+02  0.1121E+03
    -19.110  0.4042E+02  0.1127E+03
    -19.096  0.4077E+02  0.1133E+03
    -19.082  0.4110E+02  0.1138E+03
    -19.068  0.4142E+02  0.1144E+03
    -19.055  0.4171E+02  0.1150E+03
    -19.041  0.4199E+02  0.1155E+03
    -19.027  0.4226E+02  0.1161E+03
    -19.013  0.4251E+02  0.1167E+03
    -19.000  0.4276E+02  0.1173E+03
    -18.986  0.4300E+02  0.1179E+03
    -18.972  0.4323E+02  0.1185E+03
    -18.959  0.4347E+02  0.1191E+03
    -18.945  0.4370E+02  0.1197E+03
    -18.931  0.4393E+02  0.1203E+03
    -18.917  0.4415E+02  0.1209E+03
    -18.904  0.4437E+02  0.1215E+03
    -18.890  0.4459E+02  0.1221E+03
    -18.876  0.4479E+02  0.1227E+03
    -18.862  0.4498E+02  0.1233E+03
    -18.849  0.4515E+02  0.1240E+03
    -18.835  0.4531E+02  0.1246E+03
    -18.821  0.4544E+02  0.1252E+03
    -18.808  0.4555E+02  0.1258E+03
    -18.794  0.4562E+02  0.1265E+03
    -18.780  0.4567E+02  0.1271E+03
    -18.766  0.4568E+02  0.1277E+03
    -18.753  0.4566E+02  0.1283E+03
    -18.739  0.4561E+02  0.1290E+03
    -18.725  0.4551E+02  0.1296E+03
    -18.711  0.4538E+02  0.1302E+03
    -18.698  0.4522E+02  0.1308E+03
    -18.684  0.4502E+02  0.1314E+03
    -18.670  0.4479E+02  0.1321E+03
    -18.657  0.4452E+02  0.1327E+03
    -18.643  0.4424E+02  0.1333E+03
    -18.629  0.4393E+02  0.1339E+03
    -18.615  0.4360E+02  0.1345E+03
    -18.602  0.4327E+02  0.1351E+03
    -18.588  0.4293E+02  0.1357E+03
    -18.574  0.4259E+02  0.1362E+03
    -18.560  0.4225E+02  0.1368E+03
    -18.547  0.4193E+02  0.1374E+03
    -18.533  0.4162E+02  0.1380E+03
    -18.519  0.4134E+02  0.1385E+03
    -18.506  0.4109E+02  0.1391E+03
    -18.492  0.4087E+02  0.1397E+03
    -18.478  0.4068E+02  0.1402E+03
    -18.464  0.4053E+02  0.1408E+03
    -18.451  0.4042E+02  0.1413E+03
    -18.437  0.4034E+02  0.1419E+03
    -18.423  0.4030E+02  0.1424E+03
    -18.410  0.4030E+02  0.1430E+03
    -18.396  0.4033E+02  0.1435E+03
    -18.382  0.4039E+02  0.1441E+03
    -18.368  0.4047E+02  0.1447E+03
    -18.355  0.4058E+02  0.1452E+03
    -18.341  0.4071E+02  0.1458E+03
    -18.327  0.4085E+02  0.1463E+03
    -18.313  0.4101E+02  0.1469E+03
    -18.300  0.4117E+02  0.1475E+03
    -18.286  0.4134E+02  0.1480E+03
    -18.272  0.4150E+02  0.1486E+03
    -18.259  0.4166E+02  0.1492E+03
    -18.245  0.4181E+02  0.1497E+03
    -18.231  0.4195E+02  0.1503E+03
    -18.217  0.4208E+02  0.1509E+03
    -18.204  0.4220E+02  0.1515E+03
    -18.190  0.4229E+02  0.1521E+03
    -18.176  0.4236E+02  0.1526E+03
    -18.162  0.4241E+02  0.1532E+03
    -18.149  0.4244E+02  0.1538E+03
    -18.135  0.4245E+02  0.1544E+03
    -18.121  0.4243E+02  0.1550E+03
    -18.108  0.4239E+02  0.1556E+03
    -18.094  0.4232E+02  0.1561E+03
    -18.080  0.4223E+02  0.1567E+03
    -18.066  0.4213E+02  0.1573E+03
    -18.053  0.4200E+02  0.1579E+03
    -18.039  0.4187E+02  0.1584E+03
    -18.025  0.4172E+02  0.1590E+03
    -18.011  0.4156E+02  0.1596E+03
    -17.998  0.4139E+02  0.1602E+03
    -17.984  0.4122E+02  0.1607E+03
    -17.970  0.4105E+02  0.1613E+03
    -17.957  0.4088E+02  0.1618E+03
    -17.943  0.4071E+02  0.1624E+03
    -17.929  0.4055E+02  0.1630E+03
    -17.915  0.4038E+02  0.1635E+03
    -17.902  0.4022E+02  0.1641E+03
    -17.888  0.4006E+02  0.1646E+03
    -17.874  0.3989E+02  0.1652E+03
    -17.860  0.3973E+02  0.1657E+03
    -17.847  0.3957E+02  0.1663E+03
    -17.833  0.3941E+02  0.1668E+03
    -17.819  0.3924E+02  0.1673E+03
    -17.806  0.3908E+02  0.1679E+03
    -17.792  0.3891E+02  0.1684E+03
    -17.778  0.3874E+02  0.1689E+03
    -17.764  0.3857E+02  0.1695E+03
    -17.751  0.3839E+02  0.1700E+03
    -17.737  0.3822E+02  0.1705E+03
    -17.723  0.3805E+02  0.1710E+03
    -17.710  0.3788E+02  0.1716E+03
    -17.696  0.3771E+02  0.1721E+03
    -17.682  0.3755E+02  0.1726E+03
    -17.668  0.3739E+02  0.1731E+03
    -17.655  0.3723E+02  0.1736E+03
    -17.641  0.3707E+02  0.1741E+03
    -17.627  0.3691E+02  0.1746E+03
    -17.613  0.3675E+02  0.1751E+03
    -17.600  0.3659E+02  0.1756E+03
    -17.586  0.3642E+02  0.1761E+03
    -17.572  0.3625E+02  0.1766E+03
    -17.559  0.3608E+02  0.1771E+03
    -17.545  0.3589E+02  0.1776E+03
    -17.531  0.3569E+02  0.1781E+03
    -17.517  0.3548E+02  0.1786E+03
    -17.504  0.3526E+02  0.1791E+03
    -17.490  0.3503E+02  0.1796E+03
    -17.476  0.3478E+02  0.1800E+03
    -17.462  0.3452E+02  0.1805E+03
    -17.449  0.3425E+02  0.1810E+03
    -17.435  0.3398E+02  0.1814E+03
    -17.421  0.3369E+02  0.1819E+03
    -17.408  0.3340E+02  0.1824E+03
    -17.394  0.3311E+02  0.1828E+03
    -17.380  0.3282E+02  0.1833E+03
    -17.366  0.3254E+02  0.1837E+03
    -17.353  0.3228E+02  0.1842E+03
    -17.339  0.3203E+02  0.1846E+03
    -17.325  0.3180E+02  0.1850E+03
    -17.311  0.3161E+02  0.1855E+03
    -17.298  0.3144E+02  0.1859E+03
    -17.284  0.3132E+02  0.1863E+03
    -17.270  0.3124E+02  0.1868E+03
    -17.257  0.3121E+02  0.1872E+03
    -17.243  0.3123E+02  0.1876E+03
    -17.229  0.3130E+02  0.1881E+03
    -17.215  0.3143E+02  0.1885E+03
    -17.202  0.3162E+02  0.1889E+03
    -17.188  0.3186E+02  0.1894E+03
    -17.174  0.3216E+02  0.1898E+03
    -17.160  0.3251E+02  0.1902E+03
    -17.147  0.3291E+02  0.1907E+03
    -17.133  0.3336E+02  0.1912E+03
    -17.119  0.3385E+02  0.1916E+03
    -17.106  0.3437E+02  0.1921E+03
    -17.092  0.3492E+02  0.1926E+03
    -17.078  0.3549E+02  0.1931E+03
    -17.064  0.3607E+02  0.1935E+03
    -17.051  0.3665E+02  0.1941E+03
    -17.037  0.3723E+02  0.1946E+03
    -17.023  0.3779E+02  0.1951E+03
    -17.009  0.3832E+02  0.1956E+03
    -16.996  0.3882E+02  0.1961E+03
    -16.982  0.3927E+02  0.1967E+03
    -16.968  0.3968E+02  0.1972E+03
    -16.955  0.4003E+02  0.1978E+03
    -16.941  0.4033E+02  0.1983E+03
    -16.927  0.4056E+02  0.1989E+03
    -16.913  0.4073E+02  0.1994E+03
    -16.900  0.4083E+02  0.2000E+03
    -16.886  0.4087E+02  0.2006E+03
    -16.872  0.4084E+02  0.2011E+03
    -16.859  0.4076E+02  0.2017E+03
    -16.845  0.4063E+02  0.2022E+03
    -16.831  0.4044E+02  0.2028E+03
    -16.817  0.4021E+02  0.2033E+03
    -16.804  0.3994E+02  0.2039E+03
    -16.790  0.3964E+02  0.2044E+03
    -16.776  0.3931E+02  0.2050E+03
    -16.762  0.3896E+02  0.2055E+03
    -16.749  0.3860E+02  0.2060E+03
    -16.735  0.3824E+02  0.2066E+03
    -16.721  0.3787E+02  0.2071E+03
    -16.708  0.3751E+02  0.2076E+03
    -16.694  0.3716E+02  0.2081E+03
    -16.680  0.3683E+02  0.2086E+03
    -16.666  0.3651E+02  0.2091E+03
    -16.653  0.3621E+02  0.2096E+03
    -16.639  0.3594E+02  0.2101E+03
    -16.625  0.3569E+02  0.2106E+03
    -16.611  0.3547E+02  0.2111E+03
    -16.598  0.3527E+02  0.2116E+03
    -16.584  0.3509E+02  0.2121E+03
    -16.570  0.3494E+02  0.2125E+03
    -16.557  0.3480E+02  0.2130E+03
    -16.543  0.3469E+02  0.2135E+03
    -16.529  0.3458E+02  0.2140E+03
    -16.515  0.3449E+02  0.2144E+03
    -16.502  0.3440E+02  0.2149E+03
    -16.488  0.3432E+02  0.2154E+03
    -16.474  0.3424E+02  0.2158E+03
    -16.460  0.3417E+02  0.2163E+03
    -16.447  0.3409E+02  0.2168E+03
    -16.433  0.3401E+02  0.2173E+03
    -16.419  0.3394E+02  0.2177E+03
    -16.406  0.3387E+02  0.2182E+03
    -16.392  0.3381E+02  0.2186E+03
    -16.378  0.3375E+02  0.2191E+03
    -16.364  0.3372E+02  0.2196E+03
    -16.351  0.3369E+02  0.2200E+03
    -16.337  0.3369E+02  0.2205E+03
    -16.323  0.3372E+02  0.2210E+03
    -16.309  0.3377E+02  0.2214E+03
    -16.296  0.3384E+02  0.2219E+03
    -16.282  0.3395E+02  0.2224E+03
    -16.268  0.3409E+02  0.2228E+03
    -16.255  0.3425E+02  0.2233E+03
    -16.241  0.3443E+02  0.2238E+03
    -16.227  0.3464E+02  0.2242E+03
    -16.213  0.3486E+02  0.2247E+03
    -16.200  0.3510E+02  0.2252E+03
    -16.186  0.3534E+02  0.2257E+03
    -16.172  0.3559E+02  0.2262E+03
    -16.159  0.3584E+02  0.2267E+03
    -16.145  0.3608E+02  0.2272E+03
    -16.131  0.3632E+02  0.2277E+03
    -16.117  0.3654E+02  0.2282E+03
    -16.104  0.3676E+02  0.2287E+03
    -16.090  0.3696E+02  0.2292E+03
    -16.076  0.3715E+02  0.2297E+03
    -16.062  0.3734E+02  0.2302E+03
    -16.049  0.3751E+02  0.2307E+03
    -16.035  0.3767E+02  0.2312E+03
    -16.021  0.3783E+02  0.2317E+03
    -16.008  0.3798E+02  0.2323E+03
    -15.994  0.3814E+02  0.2328E+03
    -15.980  0.3829E+02  0.2333E+03
    -15.966  0.3844E+02  0.2338E+03
    -15.953  0.3859E+02  0.2344E+03
    -15.939  0.3875E+02  0.2349E+03
    -15.925  0.3891E+02  0.2354E+03
    -15.911  0.3907E+02  0.2360E+03
    -15.898  0.3924E+02  0.2365E+03
    -15.884  0.3942E+02  0.2371E+03
    -15.870  0.3959E+02  0.2376E+03
    -15.857  0.3978E+02  0.2381E+03
    -15.843  0.3996E+02  0.2387E+03
    -15.829  0.4015E+02  0.2392E+03
    -15.815  0.4034E+02  0.2398E+03
    -15.802  0.4053E+02  0.2404E+03
    -15.788  0.4072E+02  0.2409E+03
    -15.774  0.4090E+02  0.2415E+03
    -15.760  0.4107E+02  0.2420E+03
    -15.747  0.4123E+02  0.2426E+03
    -15.733  0.4137E+02  0.2432E+03
    -15.719  0.4149E+02  0.2437E+03
    -15.706  0.4160E+02  0.2443E+03
    -15.692  0.4168E+02  0.2449E+03
    -15.678  0.4173E+02  0.2455E+03
    -15.664  0.4175E+02  0.2460E+03
    -15.651  0.4175E+02  0.2466E+03
    -15.637  0.4171E+02  0.2472E+03
    -15.623  0.4164E+02  0.2477E+03
    -15.609  0.4154E+02  0.2483E+03
    -15.596  0.4141E+02  0.2489E+03
    -15.582  0.4126E+02  0.2495E+03
    -15.568  0.4109E+02  0.2500E+03
    -15.555  0.4090E+02  0.2506E+03
    -15.541  0.4069E+02  0.2511E+03
    -15.527  0.4048E+02  0.2517E+03
    -15.513  0.4027E+02  0.2522E+03
    -15.500  0.4006E+02  0.2528E+03
    -15.486  0.3986E+02  0.2533E+03
    -15.472  0.3966E+02  0.2539E+03
    -15.459  0.3949E+02  0.2544E+03
    -15.445  0.3933E+02  0.2550E+03
    -15.431  0.3920E+02  0.2555E+03
    -15.417  0.3908E+02  0.2560E+03
    -15.404  0.3900E+02  0.2566E+03
    -15.390  0.3893E+02  0.2571E+03
    -15.376  0.3889E+02  0.2576E+03
    -15.362  0.3887E+02  0.2582E+03
    -15.349  0.3887E+02  0.2587E+03
    -15.335  0.3888E+02  0.2592E+03
    -15.321  0.3891E+02  0.2598E+03
    -15.308  0.3895E+02  0.2603E+03
    -15.294  0.3900E+02  0.2609E+03
    -15.280  0.3905E+02  0.2614E+03
    -15.266  0.3911E+02  0.2619E+03
    -15.253  0.3917E+02  0.2625E+03
    -15.239  0.3924E+02  0.2630E+03
    -15.225  0.3930E+02  0.2635E+03
    -15.211  0.3937E+02  0.2641E+03
    -15.198  0.3943E+02  0.2646E+03
    -15.184  0.3950E+02  0.2652E+03
    -15.170  0.3958E+02  0.2657E+03
    -15.157  0.3965E+02  0.2663E+03
    -15.143  0.3973E+02  0.2668E+03
    -15.129  0.3981E+02  0.2673E+03
    -15.115  0.3990E+02  0.2679E+03
    -15.102  0.3999E+02  0.2684E+03
    -15.088  0.4008E+02  0.2690E+03
    -15.074  0.4017E+02  0.2695E+03
    -15.060  0.4027E+02  0.2701E+03
    -15.047  0.4037E+02  0.2706E+03
    -15.033  0.4047E+02  0.2712E+03
    -15.019  0.4056E+02  0.2718E+03
    -15.006  0.4065E+02  0.2723E+03
    -14.992  0.4074E+02  0.2729E+03
    -14.978  0.4081E+02  0.2734E+03
    -14.964  0.4088E+02  0.2740E+03
    -14.951  0.4093E+02  0.2746E+03
    -14.937  0.4097E+02  0.2751E+03
    -14.923  0.4099E+02  0.2757E+03
    -14.909  0.4099E+02  0.2762E+03
    -14.896  0.4098E+02  0.2768E+03
    -14.882  0.4094E+02  0.2774E+03
    -14.868  0.4089E+02  0.2779E+03
    -14.855  0.4082E+02  0.2785E+03
    -14.841  0.4073E+02  0.2791E+03
    -14.827  0.4062E+02  0.2796E+03
    -14.813  0.4051E+02  0.2802E+03
    -14.800  0.4038E+02  0.2807E+03
    -14.786  0.4025E+02  0.2813E+03
    -14.772  0.4012E+02  0.2818E+03
    -14.758  0.4000E+02  0.2824E+03
    -14.745  0.3988E+02  0.2829E+03
    -14.731  0.3977E+02  0.2835E+03
    -14.717  0.3969E+02  0.2840E+03
    -14.704  0.3962E+02  0.2846E+03
    -14.690  0.3958E+02  0.2851E+03
    -14.676  0.3957E+02  0.2856E+03
    -14.662  0.3958E+02  0.2862E+03
    -14.649  0.3962E+02  0.2867E+03
    -14.635  0.3969E+02  0.2873E+03
    -14.621  0.3979E+02  0.2878E+03
    -14.608  0.3990E+02  0.2884E+03
    -14.594  0.4003E+02  0.2889E+03
    -14.580  0.4018E+02  0.2895E+03
    -14.566  0.4033E+02  0.2900E+03
    -14.553  0.4048E+02  0.2906E+03
    -14.539  0.4063E+02  0.2911E+03
    -14.525  0.4077E+02  0.2917E+03
    -14.511  0.4089E+02  0.2923E+03
    -14.498  0.4100E+02  0.2928E+03
    -14.484  0.4109E+02  0.2934E+03
    -14.470  0.4115E+02  0.2939E+03
    -14.457  0.4119E+02  0.2945E+03
    -14.443  0.4120E+02  0.2951E+03
    -14.429  0.4119E+02  0.2956E+03
    -14.415  0.4116E+02  0.2962E+03
    -14.402  0.4111E+02  0.2968E+03
    -14.388  0.4104E+02  0.2973E+03
    -14.374  0.4096E+02  0.2979E+03
    -14.360  0.4086E+02  0.2985E+03
    -14.347  0.4076E+02  0.2990E+03
    -14.333  0.4065E+02  0.2996E+03
    -14.319  0.4054E+02  0.3001E+03
    -14.306  0.4043E+02  0.3007E+03
    -14.292  0.4031E+02  0.3012E+03
    -14.278  0.4020E+02  0.3018E+03
    -14.264  0.4009E+02  0.3023E+03
    -14.251  0.3999E+02  0.3029E+03
    -14.237  0.3989E+02  0.3034E+03
    -14.223  0.3979E+02  0.3040E+03
    -14.209  0.3969E+02  0.3045E+03
    -14.196  0.3960E+02  0.3051E+03
    -14.182  0.3950E+02  0.3056E+03
    -14.168  0.3941E+02  0.3062E+03
    -14.155  0.3932E+02  0.3067E+03
    -14.141  0.3924E+02  0.3072E+03
    -14.127  0.3915E+02  0.3078E+03
    -14.113  0.3906E+02  0.3083E+03
    -14.100  0.3898E+02  0.3088E+03
    -14.086  0.3890E+02  0.3094E+03
    -14.072  0.3882E+02  0.3099E+03
    -14.058  0.3874E+02  0.3104E+03
    -14.045  0.3866E+02  0.3110E+03
    -14.031  0.3858E+02  0.3115E+03
    -14.017  0.3850E+02  0.3120E+03
    -14.004  0.3843E+02  0.3126E+03
    -13.990  0.3836E+02  0.3131E+03
    -13.976  0.3829E+02  0.3136E+03
    -13.962  0.3822E+02  0.3141E+03
    -13.949  0.3816E+02  0.3147E+03
    -13.935  0.3810E+02  0.3152E+03
    -13.921  0.3804E+02  0.3157E+03
    -13.908  0.3798E+02  0.3162E+03
    -13.894  0.3792E+02  0.3167E+03
    -13.880  0.3787E+02  0.3173E+03
    -13.866  0.3783E+02  0.3178E+03
    -13.853  0.3778E+02  0.3183E+03
    -13.839  0.3775E+02  0.3188E+03
    -13.825  0.3771E+02  0.3193E+03
    -13.811  0.3768E+02  0.3199E+03
    -13.798  0.3765E+02  0.3204E+03
    -13.784  0.3763E+02  0.3209E+03
    -13.770  0.3761E+02  0.3214E+03
    -13.757  0.3759E+02  0.3219E+03
    -13.743  0.3757E+02  0.3224E+03
    -13.729  0.3755E+02  0.3230E+03
    -13.715  0.3753E+02  0.3235E+03
    -13.702  0.3751E+02  0.3240E+03
    -13.688  0.3750E+02  0.3245E+03
    -13.674  0.3747E+02  0.3250E+03
    -13.660  0.3745E+02  0.3255E+03
    -13.647  0.3742E+02  0.3260E+03
    -13.633  0.3739E+02  0.3266E+03
    -13.619  0.3736E+02  0.3271E+03
    -13.606  0.3732E+02  0.3276E+03
    -13.592  0.3727E+02  0.3281E+03
    -13.578  0.3723E+02  0.3286E+03
    -13.564  0.3718E+02  0.3291E+03
    -13.551  0.3713E+02  0.3296E+03
    -13.537  0.3707E+02  0.3301E+03
    -13.523  0.3701E+02  0.3306E+03
    -13.509  0.3696E+02  0.3311E+03
    -13.496  0.3690E+02  0.3316E+03
    -13.482  0.3685E+02  0.3322E+03
    -13.468  0.3680E+02  0.3327E+03
    -13.455  0.3675E+02  0.3332E+03
    -13.441  0.3672E+02  0.3337E+03
    -13.427  0.3669E+02  0.3342E+03
    -13.413  0.3668E+02  0.3347E+03
    -13.400  0.3668E+02  0.3352E+03
    -13.386  0.3670E+02  0.3357E+03
    -13.372  0.3674E+02  0.3362E+03
    -13.358  0.3680E+02  0.3367E+03
    -13.345  0.3690E+02  0.3372E+03
    -13.331  0.3702E+02  0.3377E+03
    -13.317  0.3717E+02  0.3382E+03
    -13.304  0.3736E+02  0.3387E+03
    -13.290  0.3758E+02  0.3392E+03
    -13.276  0.3783E+02  0.3398E+03
    -13.262  0.3812E+02  0.3403E+03
    -13.249  0.3844E+02  0.3408E+03
    -13.235  0.3879E+02  0.3413E+03
    -13.221  0.3917E+02  0.3419E+03
    -13.207  0.3956E+02  0.3424E+03
    -13.194  0.3997E+02  0.3430E+03
    -13.180  0.4039E+02  0.3435E+03
    -13.166  0.4082E+02  0.3441E+03
    -13.153  0.4123E+02  0.3447E+03
    -13.139  0.4163E+02  0.3452E+03
    -13.125  0.4201E+02  0.3458E+03
    -13.111  0.4236E+02  0.3464E+03
    -13.098  0.4268E+02  0.3470E+03