 137 137   0   0
  0.2676739E+02  0.2130000E-08  0.1721659E-08  0.1000000E-08  0.5000000E-15
  1.000000000000000E-004
  CAR 
 unknown system                          
      5.63708514    -24.75787323 2000     -1.26547665      1.00000000
    -24.758  0.0000E+00  0.0000E+00
    -24.743  0.0000E+00  0.0000E+00
    -24.727  0.0000E+00  0.0000E+00
    -24.712  0.0000E+00  0.0000E+00
    -24.697  0.0000E+00  0.0000E+00
    -24.682  0.0000E+00  0.0000E+00
    -24.667  0.0000E+00  0.0000E+00
    -24.651  0.0000E+00  0.0000E+00
    -24.636  0.0000E+00  0.0000E+00
    -24.621  0.0000E+00  0.0000E+00
    -24.606  0.0000E+00  0.0000E+00
    -24.591  0.0000E+00  0.0000E+00
    -24.575  0.0000E+00  0.0000E+00
    -24.560  0.0000E+00  0.0000E+00
    -24.545  0.0000E+00  0.0000E+00
    -24.530  0.0000E+00  0.0000E+00
    -24.515  0.0000E+00  0.0000E+00
    -24.499  0.0000E+00  0.0000E+00
    -24.484  0.0000E+00  0.0000E+00
    -24.469  0.0000E+00  0.0000E+00
    -24.454  0.0000E+00  0.0000E+00
    -24.439  0.0000E+00  0.0000E+00
    -24.423  0.0000E+00  0.0000E+00
    -24.408  0.0000E+00  0.0000E+00
    -24.393  0.0000E+00  0.0000E+00
    -24.378  0.0000E+00  0.0000E+00
    -24.363  0.0000E+00  0.0000E+00
    -24.347  0.0000E+00  0.0000E+00
    -24.332  0.0000E+00  0.0000E+00
    -24.317  0.0000E+00  0.0000E+00
    -24.302  0.0000E+00  0.0000E+00
    -24.287  0.0000E+00  0.0000E+00
    -24.271  0.0000E+00  0.0000E+00
    -24.256  0.0000E+00  0.0000E+00
    -24.241  0.0000E+00  0.0000E+00
    -24.226  0.0000E+00  0.0000E+00
    -24.210  0.0000E+00  0.0000E+00
    -24.195  0.0000E+00  0.0000E+00
    -24.180  0.0000E+00  0.0000E+00
    -24.165  0.0000E+00  0.0000E+00
    -24.150  0.0000E+00  0.0000E+00
    -24.134  0.0000E+00  0.0000E+00
    -24.119  0.0000E+00  0.0000E+00
    -24.104  0.0000E+00  0.0000E+00
    -24.089  0.0000E+00  0.0000E+00
    -24.074  0.0000E+00  0.0000E+00
    -24.058  0.0000E+00  0.0000E+00
    -24.043  0.0000E+00  0.0000E+00
    -24.028  0.0000E+00  0.0000E+00
    -24.013  0.0000E+00  0.0000E+00
    -23.998  0.0000E+00  0.0000E+00
    -23.982  0.0000E+00  0.0000E+00
    -23.967  0.0000E+00  0.0000E+00
    -23.952  0.0000E+00  0.0000E+00
    -23.937  0.7302E-14  0.1110E-15
    -23.922  0.7302E-14  0.2220E-15
    -23.906  0.1460E-13  0.4441E-15
    -23.891  0.4381E-13  0.1110E-14
    -23.876  0.1022E-12  0.2665E-14
    -23.861  0.2337E-12  0.6217E-14
    -23.846  0.5476E-12  0.1454E-13
    -23.830  0.1251E-11  0.3357E-13
    -23.815  0.2817E-11  0.7640E-13
    -23.800  0.6296E-11  0.1721E-12
    -23.785  0.1388E-10  0.3832E-12
    -23.770  0.3029E-10  0.8439E-12
    -23.754  0.6533E-10  0.1837E-11
    -23.739  0.1392E-09  0.3954E-11
    -23.724  0.2934E-09  0.8416E-11
    -23.709  0.6112E-09  0.1771E-10
    -23.694  0.1258E-08  0.3684E-10
    -23.678  0.2561E-08  0.7579E-10
    -23.663  0.5153E-08  0.1541E-09
    -23.648  0.1025E-07  0.3100E-09
    -23.633  0.2015E-07  0.6164E-09
    -23.617  0.3916E-07  0.1212E-08
    -23.602  0.7524E-07  0.2356E-08
    -23.587  0.1429E-06  0.4528E-08
    -23.572  0.2682E-06  0.8607E-08
    -23.557  0.4978E-06  0.1618E-07
    -23.541  0.9131E-06  0.3006E-07
    -23.526  0.1656E-05  0.5524E-07
    -23.511  0.2968E-05  0.1004E-06
    -23.496  0.5259E-05  0.1803E-06
    -23.481  0.9212E-05  0.3204E-06
    -23.465  0.1595E-04  0.5630E-06
    -23.450  0.2730E-04  0.9781E-06
    -23.435  0.4620E-04  0.1681E-05
    -23.420  0.7726E-04  0.2855E-05
    -23.405  0.1277E-03  0.4798E-05
    -23.389  0.2088E-03  0.7972E-05
    -23.374  0.3373E-03  0.1310E-04
    -23.359  0.5387E-03  0.2129E-04
    -23.344  0.8504E-03  0.3422E-04
    -23.329  0.1327E-02  0.5440E-04
    -23.313  0.2047E-02  0.8553E-04
    -23.298  0.3122E-02  0.1330E-03
    -23.283  0.4706E-02  0.2046E-03
    -23.268  0.7013E-02  0.3112E-03
    -23.253  0.1033E-01  0.4683E-03
    -23.237  0.1504E-01  0.6970E-03
    -23.222  0.2165E-01  0.1026E-02
    -23.207  0.3081E-01  0.1495E-02
    -23.192  0.4333E-01  0.2153E-02
    -23.177  0.6024E-01  0.3069E-02
    -23.161  0.8280E-01  0.4328E-02
    -23.146  0.1125E+00  0.6039E-02
    -23.131  0.1511E+00  0.8336E-02
    -23.116  0.2006E+00  0.1139E-01
    -23.101  0.2632E+00  0.1539E-01
    -23.085  0.3415E+00  0.2058E-01
    -23.070  0.4379E+00  0.2724E-01
    -23.055  0.5551E+00  0.3568E-01
    -23.040  0.6956E+00  0.4626E-01
    -23.024  0.8617E+00  0.5936E-01
    -23.009  0.1055E+01  0.7540E-01
    -22.994  0.1277E+01  0.9482E-01
    -22.979  0.1528E+01  0.1181E+00
    -22.964  0.1807E+01  0.1455E+00
    -22.948  0.2113E+01  0.1777E+00
    -22.933  0.2443E+01  0.2148E+00
    -22.918  0.2791E+01  0.2572E+00
    -22.903  0.3152E+01  0.3052E+00
    -22.888  0.3519E+01  0.3587E+00
    -22.872  0.3884E+01  0.4177E+00
    -22.857  0.4237E+01  0.4821E+00
    -22.842  0.4569E+01  0.5516E+00
    -22.827  0.4871E+01  0.6257E+00
    -22.812  0.5133E+01  0.7037E+00
    -22.796  0.5347E+01  0.7850E+00
    -22.781  0.5507E+01  0.8688E+00
    -22.766  0.5606E+01  0.9540E+00
    -22.751  0.5642E+01  0.1040E+01
    -22.736  0.5613E+01  0.1125E+01
    -22.720  0.5522E+01  0.1209E+01
    -22.705  0.5370E+01  0.1291E+01
    -22.690  0.5164E+01  0.1369E+01
    -22.675  0.4912E+01  0.1444E+01
    -22.660  0.4621E+01  0.1514E+01
    -22.644  0.4302E+01  0.1580E+01
    -22.629  0.3966E+01  0.1640E+01
    -22.614  0.3623E+01  0.1695E+01
    -22.599  0.3284E+01  0.1745E+01
    -22.584  0.2959E+01  0.1790E+01
    -22.568  0.2656E+01  0.1830E+01
    -22.553  0.2385E+01  0.1867E+01
    -22.538  0.2152E+01  0.1899E+01
    -22.523  0.1962E+01  0.1929E+01
    -22.508  0.1821E+01  0.1957E+01
    -22.492  0.1732E+01  0.1983E+01
    -22.477  0.1697E+01  0.2009E+01
    -22.462  0.1716E+01  0.2035E+01
    -22.447  0.1789E+01  0.2062E+01
    -22.431  0.1914E+01  0.2091E+01
    -22.416  0.2089E+01  0.2123E+01
    -22.401  0.2310E+01  0.2158E+01
    -22.386  0.2571E+01  0.2197E+01
    -22.371  0.2864E+01  0.2241E+01
    -22.355  0.3184E+01  0.2289E+01
    -22.340  0.3520E+01  0.2343E+01
    -22.325  0.3863E+01  0.2402E+01
    -22.310  0.4202E+01  0.2465E+01
    -22.295  0.4527E+01  0.2534E+01
    -22.279  0.4827E+01  0.2608E+01
    -22.264  0.5092E+01  0.2685E+01
    -22.249  0.5313E+01  0.2766E+01
    -22.234  0.5482E+01  0.2849E+01
    -22.219  0.5592E+01  0.2934E+01
    -22.203  0.5640E+01  0.3020E+01
    -22.188  0.5624E+01  0.3106E+01
    -22.173  0.5543E+01  0.3190E+01
    -22.158  0.5402E+01  0.3272E+01
    -22.143  0.5203E+01  0.3351E+01
    -22.127  0.4955E+01  0.3426E+01
    -22.112  0.4664E+01  0.3497E+01
    -22.097  0.4340E+01  0.3563E+01
    -22.082  0.3992E+01  0.3624E+01
    -22.067  0.3630E+01  0.3679E+01
    -22.051  0.3263E+01  0.3729E+01
    -22.036  0.2899E+01  0.3773E+01
    -22.021  0.2546E+01  0.3812E+01
    -22.006  0.2211E+01  0.3845E+01
    -21.991  0.1897E+01  0.3874E+01
    -21.975  0.1610E+01  0.3899E+01
    -21.960  0.1350E+01  0.3919E+01
    -21.945  0.1119E+01  0.3936E+01
    -21.930  0.9174E+00  0.3950E+01
    -21.915  0.7433E+00  0.3961E+01
    -21.899  0.5955E+00  0.3970E+01
    -21.884  0.4718E+00  0.3978E+01
    -21.869  0.3697E+00  0.3983E+01
    -21.854  0.2869E+00  0.3988E+01
    -21.838  0.2208E+00  0.3991E+01
    -21.823  0.1690E+00  0.3994E+01
    -21.808  0.1294E+00  0.3995E+01
    -21.793  0.1002E+00  0.3997E+01
    -21.778  0.7993E-01  0.3998E+01
    -21.762  0.6751E-01  0.3999E+01
    -21.747  0.6222E-01  0.4000E+01
    -21.732  0.6379E-01  0.4001E+01
    -21.717  0.7234E-01  0.4002E+01
    -21.702  0.8842E-01  0.4004E+01
    -21.686  0.1130E+00  0.4005E+01
    -21.671  0.1476E+00  0.4008E+01
    -21.656  0.1940E+00  0.4011E+01
    -21.641  0.2544E+00  0.4014E+01
    -21.626  0.3314E+00  0.4019E+01
    -21.610  0.4281E+00  0.4026E+01
    -21.595  0.5477E+00  0.4034E+01
    -21.580  0.6934E+00  0.4045E+01
    -21.565  0.8688E+00  0.4058E+01
    -21.550  0.1077E+01  0.4074E+01
    -21.534  0.1321E+01  0.4094E+01
    -21.519  0.1604E+01  0.4119E+01
    -21.504  0.1927E+01  0.4148E+01
    -21.489  0.2292E+01  0.4183E+01
    -21.474  0.2697E+01  0.4224E+01
    -21.458  0.3143E+01  0.4272E+01
    -21.443  0.3626E+01  0.4327E+01
    -21.428  0.4143E+01  0.4390E+01
    -21.413  0.4688E+01  0.4461E+01
    -21.398  0.5256E+01  0.4541E+01
    -21.382  0.5838E+01  0.4630E+01
    -21.367  0.6425E+01  0.4728E+01
    -21.352  0.7010E+01  0.4834E+01
    -21.337  0.7584E+01  0.4950E+01
    -21.322  0.8136E+01  0.5073E+01
    -21.306  0.8659E+01  0.5205E+01
    -21.291  0.9145E+01  0.5344E+01
    -21.276  0.9588E+01  0.5490E+01
    -21.261  0.9982E+01  0.5641E+01
    -21.245  0.1033E+02  0.5798E+01
    -21.230  0.1062E+02  0.5960E+01
    -21.215  0.1086E+02  0.6125E+01
    -21.200  0.1105E+02  0.6293E+01
    -21.185  0.1119E+02  0.6463E+01
    -21.169  0.1130E+02  0.6635E+01
    -21.154  0.1137E+02  0.6808E+01
    -21.139  0.1143E+02  0.6982E+01
    -21.124  0.1146E+02  0.7156E+01
    -21.109  0.1149E+02  0.7331E+01
    -21.093  0.1153E+02  0.7506E+01
    -21.078  0.1157E+02  0.7682E+01
    -21.063  0.1163E+02  0.7859E+01
    -21.048  0.1172E+02  0.8037E+01
    -21.033  0.1183E+02  0.8217E+01
    -21.017  0.1196E+02  0.8399E+01
    -21.002  0.1213E+02  0.8583E+01
    -20.987  0.1233E+02  0.8771E+01
    -20.972  0.1255E+02  0.8961E+01
    -20.957  0.1279E+02  0.9156E+01
    -20.941  0.1305E+02  0.9354E+01
    -20.926  0.1333E+02  0.9557E+01
    -20.911  0.1360E+02  0.9764E+01
    -20.896  0.1388E+02  0.9975E+01
    -20.881  0.1415E+02  0.1019E+02
    -20.865  0.1441E+02  0.1041E+02
    -20.850  0.1465E+02  0.1063E+02
    -20.835  0.1487E+02  0.1086E+02
    -20.820  0.1508E+02  0.1109E+02
    -20.805  0.1526E+02  0.1132E+02
    -20.789  0.1543E+02  0.1155E+02
    -20.774  0.1558E+02  0.1179E+02
    -20.759  0.1571E+02  0.1203E+02
    -20.744  0.1584E+02  0.1227E+02
    -20.729  0.1597E+02  0.1251E+02
    -20.713  0.1610E+02  0.1276E+02
    -20.698  0.1625E+02  0.1301E+02
    -20.683  0.1641E+02  0.1325E+02
    -20.668  0.1659E+02  0.1351E+02
    -20.653  0.1681E+02  0.1376E+02
    -20.637  0.1705E+02  0.1402E+02
    -20.622  0.1732E+02  0.1429E+02
    -20.607  0.1762E+02  0.1455E+02
    -20.592  0.1795E+02  0.1483E+02
    -20.576  0.1830E+02  0.1510E+02
    -20.561  0.1867E+02  0.1539E+02
    -20.546  0.1905E+02  0.1568E+02
    -20.531  0.1942E+02  0.1597E+02
    -20.516  0.1979E+02  0.1627E+02
    -20.500  0.2013E+02  0.1658E+02
    -20.485  0.2045E+02  0.1689E+02
    -20.470  0.2074E+02  0.1721E+02
    -20.455  0.2098E+02  0.1753E+02
    -20.440  0.2117E+02  0.1785E+02
    -20.424  0.2132E+02  0.1817E+02
    -20.409  0.2142E+02  0.1850E+02
    -20.394  0.2146E+02  0.1882E+02
    -20.379  0.2146E+02  0.1915E+02
    -20.364  0.2142E+02  0.1948E+02
    -20.348  0.2133E+02  0.1980E+02
    -20.333  0.2122E+02  0.2012E+02
    -20.318  0.2108E+02  0.2044E+02
    -20.303  0.2092E+02  0.2076E+02
    -20.288  0.2075E+02  0.2108E+02
    -20.272  0.2057E+02  0.2139E+02
    -20.257  0.2040E+02  0.2170E+02
    -20.242  0.2024E+02  0.2201E+02
    -20.227  0.2009E+02  0.2231E+02
    -20.212  0.1995E+02  0.2262E+02
    -20.196  0.1984E+02  0.2292E+02
    -20.181  0.1974E+02  0.2322E+02
    -20.166  0.1967E+02  0.2352E+02
    -20.151  0.1961E+02  0.2381E+02
    -20.136  0.1957E+02  0.2411E+02
    -20.120  0.1954E+02  0.2441E+02
    -20.105  0.1953E+02  0.2471E+02
    -20.090  0.1952E+02  0.2500E+02
    -20.075  0.1951E+02  0.2530E+02
    -20.060  0.1950E+02  0.2560E+02
    -20.044  0.1948E+02  0.2589E+02
    -20.029  0.1945E+02  0.2619E+02
    -20.014  0.1942E+02  0.2648E+02
    -19.999  0.1937E+02  0.2678E+02
    -19.983  0.1931E+02  0.2707E+02
    -19.968  0.1924E+02  0.2736E+02
    -19.953  0.1917E+02  0.2766E+02
    -19.938  0.1910E+02  0.2795E+02
    -19.923  0.1903E+02  0.2824E+02
    -19.907  0.1896E+02  0.2852E+02
    -19.892  0.1891E+02  0.2881E+02
    -19.877  0.1888E+02  0.2910E+02
    -19.862  0.1887E+02  0.2939E+02
    -19.847  0.1889E+02  0.2967E+02
    -19.831  0.1894E+02  0.2996E+02
    -19.816  0.1902E+02  0.3025E+02
    -19.801  0.1913E+02  0.3054E+02
    -19.786  0.1928E+02  0.3083E+02
    -19.771  0.1946E+02  0.3113E+02
    -19.755  0.1966E+02  0.3143E+02
    -19.740  0.1989E+02  0.3173E+02
    -19.725  0.2013E+02  0.3204E+02
    -19.710  0.2038E+02  0.3235E+02
    -19.695  0.2064E+02  0.3266E+02
    -19.679  0.2089E+02  0.3298E+02
    -19.664  0.2114E+02  0.3330E+02
    -19.649  0.2138E+02  0.3362E+02
    -19.634  0.2160E+02  0.3395E+02
    -19.619  0.2180E+02  0.3428E+02
    -19.603  0.2198E+02  0.3462E+02
    -19.588  0.2213E+02  0.3496E+02
    -19.573  0.2226E+02  0.3529E+02
    -19.558  0.2236E+02  0.3563E+02
    -19.543  0.2244E+02  0.3597E+02
    -19.527  0.2249E+02  0.3632E+02
    -19.512  0.2252E+02  0.3666E+02
    -19.497  0.2252E+02  0.3700E+02
    -19.482  0.2251E+02  0.3734E+02
    -19.467  0.2247E+02  0.3769E+02
    -19.451  0.2242E+02  0.3803E+02
    -19.436  0.2235E+02  0.3837E+02
    -19.421  0.2226E+02  0.3870E+02
    -19.406  0.2216E+02  0.3904E+02
    -19.390  0.2204E+02  0.3938E+02
    -19.375  0.2192E+02  0.3971E+02
    -19.360  0.2180E+02  0.4004E+02
    -19.345  0.2167E+02  0.4037E+02
    -19.330  0.2154E+02  0.4070E+02
    -19.314  0.2141E+02  0.4102E+02
    -19.299  0.2128E+02  0.4135E+02
    -19.284  0.2117E+02  0.4167E+02
    -19.269  0.2106E+02  0.4199E+02
    -19.254  0.2097E+02  0.4231E+02
    -19.238  0.2088E+02  0.4263E+02
    -19.223  0.2081E+02  0.4294E+02
    -19.208  0.2075E+02  0.4326E+02
    -19.193  0.2071E+02  0.4357E+02
    -19.178  0.2067E+02  0.4389E+02
    -19.162  0.2063E+02  0.4420E+02
    -19.147  0.2060E+02  0.4451E+02
    -19.132  0.2057E+02  0.4483E+02
    -19.117  0.2054E+02  0.4514E+02
    -19.102  0.2050E+02  0.4545E+02
    -19.086  0.2046E+02  0.4576E+02
    -19.071  0.2041E+02  0.4607E+02
    -19.056  0.2034E+02  0.4638E+02
    -19.041  0.2027E+02  0.4669E+02
    -19.026  0.2019E+02  0.4700E+02
    -19.010  0.2010E+02  0.4730E+02
    -18.995  0.2001E+02  0.4761E+02
    -18.980  0.1991E+02  0.4791E+02
    -18.965  0.1982E+02  0.4821E+02
    -18.950  0.1974E+02  0.4851E+02
    -18.934  0.1968E+02  0.4881E+02
    -18.919  0.1962E+02  0.4911E+02
    -18.904  0.1959E+02  0.4941E+02
    -18.889  0.1958E+02  0.4970E+02
    -18.874  0.1959E+02  0.5000E+02
    -18.858  0.1963E+02  0.5030E+02
    -18.843  0.1969E+02  0.5060E+02
    -18.828  0.1978E+02  0.5090E+02
    -18.813  0.1989E+02  0.5120E+02
    -18.797  0.2002E+02  0.5151E+02
    -18.782  0.2017E+02  0.5181E+02
    -18.767  0.2033E+02  0.5212E+02
    -18.752  0.2050E+02  0.5243E+02
    -18.737  0.2068E+02  0.5275E+02
    -18.721  0.2085E+02  0.5307E+02
    -18.706  0.2102E+02  0.5339E+02
    -18.691  0.2117E+02  0.5371E+02
    -18.676  0.2131E+02  0.5403E+02
    -18.661  0.2143E+02  0.5436E+02
    -18.645  0.2152E+02  0.5468E+02
    -18.630  0.2158E+02  0.5501E+02
    -18.615  0.2162E+02  0.5534E+02
    -18.600  0.2163E+02  0.5567E+02
    -18.585  0.2160E+02  0.5600E+02
    -18.569  0.2155E+02  0.5633E+02
    -18.554  0.2146E+02  0.5665E+02
    -18.539  0.2136E+02  0.5698E+02
    -18.524  0.2123E+02  0.5730E+02
    -18.509  0.2109E+02  0.5762E+02
    -18.493  0.2094E+02  0.5794E+02
    -18.478  0.2079E+02  0.5826E+02
    -18.463  0.2064E+02  0.5857E+02
    -18.448  0.2049E+02  0.5888E+02
    -18.433  0.2035E+02  0.5919E+02
    -18.417  0.2023E+02  0.5950E+02
    -18.402  0.2012E+02  0.5980E+02
    -18.387  0.2003E+02  0.6011E+02
    -18.372  0.1996E+02  0.6041E+02
    -18.357  0.1991E+02  0.6071E+02
    -18.341  0.1988E+02  0.6102E+02
    -18.326  0.1987E+02  0.6132E+02
    -18.311  0.1986E+02  0.6162E+02
    -18.296  0.1987E+02  0.6192E+02
    -18.281  0.1989E+02  0.6223E+02
    -18.265  0.1992E+02  0.6253E+02
    -18.250  0.1994E+02  0.6283E+02
    -18.235  0.1997E+02  0.6314E+02
    -18.220  0.2001E+02  0.6344E+02
    -18.204  0.2004E+02  0.6374E+02
    -18.189  0.2007E+02  0.6405E+02
    -18.174  0.2011E+02  0.6436E+02
    -18.159  0.2016E+02  0.6466E+02
    -18.144  0.2021E+02  0.6497E+02
    -18.128  0.2027E+02  0.6528E+02
    -18.113  0.2035E+02  0.6559E+02
    -18.098  0.2045E+02  0.6590E+02
    -18.083  0.2056E+02  0.6621E+02
    -18.068  0.2069E+02  0.6653E+02
    -18.052  0.2084E+02  0.6684E+02
    -18.037  0.2100E+02  0.6716E+02
    -18.022  0.2118E+02  0.6748E+02
    -18.007  0.2136E+02  0.6781E+02
    -17.992  0.2155E+02  0.6814E+02
    -17.976  0.2173E+02  0.6847E+02
    -17.961  0.2191E+02  0.6880E+02
    -17.946  0.2206E+02  0.6913E+02
    -17.931  0.2220E+02  0.6947E+02
    -17.916  0.2231E+02  0.6981E+02
    -17.900  0.2238E+02  0.7015E+02
    -17.885  0.2241E+02  0.7049E+02
    -17.870  0.2241E+02  0.7083E+02
    -17.855  0.2236E+02  0.7117E+02
    -17.840  0.2228E+02  0.7151E+02
    -17.824  0.2217E+02  0.7185E+02
    -17.809  0.2203E+02  0.7218E+02
    -17.794  0.2187E+02  0.7252E+02
    -17.779  0.2170E+02  0.7285E+02
    -17.764  0.2153E+02  0.7317E+02
    -17.748  0.2136E+02  0.7350E+02
    -17.733  0.2121E+02  0.7382E+02
    -17.718  0.2108E+02  0.7414E+02
    -17.703  0.2098E+02  0.7446E+02
    -17.688  0.2091E+02  0.7478E+02
    -17.672  0.2089E+02  0.7510E+02
    -17.657  0.2091E+02  0.7541E+02
    -17.642  0.2098E+02  0.7573E+02
    -17.627  0.2108E+02  0.7605E+02
    -17.611  0.2123E+02  0.7638E+02
    -17.596  0.2141E+02  0.7670E+02
    -17.581  0.2161E+02  0.7703E+02
    -17.566  0.2184E+02  0.7736E+02
    -17.551  0.2208E+02  0.7770E+02
    -17.535  0.2232E+02  0.7804E+02
    -17.520  0.2255E+02  0.7838E+02
    -17.505  0.2278E+02  0.7873E+02
    -17.490  0.2298E+02  0.7908E+02
    -17.475  0.2316E+02  0.7943E+02
    -17.459  0.2331E+02  0.7978E+02
    -17.444  0.2342E+02  0.8014E+02
    -17.429  0.2350E+02  0.8050E+02
    -17.414  0.2354E+02  0.8085E+02
    -17.399  0.2355E+02  0.8121E+02
    -17.383  0.2352E+02  0.8157E+02
    -17.368  0.2347E+02  0.8193E+02
    -17.353  0.2338E+02  0.8228E+02
    -17.338  0.2327E+02  0.8264E+02
    -17.323  0.2314E+02  0.8299E+02
    -17.307  0.2300E+02  0.8334E+02
    -17.292  0.2284E+02  0.8368E+02
    -17.277  0.2268E+02  0.8403E+02
    -17.262  0.2252E+02  0.8437E+02
    -17.247  0.2235E+02  0.8471E+02
    -17.231  0.2220E+02  0.8505E+02
    -17.216  0.2205E+02  0.8538E+02
    -17.201  0.2192E+02  0.8572E+02
    -17.186  0.2180E+02  0.8605E+02
    -17.171  0.2170E+02  0.8638E+02
    -17.155  0.2161E+02  0.8671E+02
    -17.140  0.2155E+02  0.8704E+02
    -17.125  0.2150E+02  0.8736E+02
    -17.110  0.2147E+02  0.8769E+02
    -17.095  0.2146E+02  0.8802E+02
    -17.079  0.2147E+02  0.8834E+02
    -17.064  0.2149E+02  0.8867E+02
    -17.049  0.2152E+02  0.8900E+02
    -17.034  0.2155E+02  0.8932E+02
    -17.018  0.2160E+02  0.8965E+02
    -17.003  0.2165E+02  0.8998E+02
    -16.988  0.2171E+02  0.9031E+02
    -16.973  0.2177E+02  0.9064E+02
    -16.958  0.2183E+02  0.9097E+02
    -16.942  0.2189E+02  0.9131E+02
    -16.927  0.2196E+02  0.9164E+02
    -16.912  0.2203E+02  0.9198E+02
    -16.897  0.2210E+02  0.9231E+02
    -16.882  0.2218E+02  0.9265E+02
    -16.866  0.2226E+02  0.9299E+02
    -16.851  0.2235E+02  0.9333E+02
    -16.836  0.2244E+02  0.9367E+02
    -16.821  0.2255E+02  0.9401E+02
    -16.806  0.2265E+02  0.9436E+02
    -16.790  0.2277E+02  0.9470E+02
    -16.775  0.2288E+02  0.9505E+02
    -16.760  0.2300E+02  0.9540E+02
    -16.745  0.2311E+02  0.9575E+02
    -16.730  0.2322E+02  0.9610E+02
    -16.714  0.2332E+02  0.9646E+02
    -16.699  0.2341E+02  0.9681E+02
    -16.684  0.2348E+02  0.9717E+02
    -16.669  0.2354E+02  0.9753E+02
    -16.654  0.2358E+02  0.9789E+02
    -16.638  0.2360E+02  0.9825E+02
    -16.623  0.2360E+02  0.9861E+02
    -16.608  0.2359E+02  0.9896E+02
    -16.593  0.2356E+02  0.9932E+02
    -16.578  0.2351E+02  0.9968E+02
    -16.562  0.2345E+02  0.1000E+03
    -16.547  0.2338E+02  0.1004E+03
    -16.532  0.2330E+02  0.1007E+03
    -16.517  0.2321E+02  0.1011E+03
    -16.502  0.2312E+02  0.1015E+03
    -16.486  0.2303E+02  0.1018E+03
    -16.471  0.2293E+02  0.1021E+03
    -16.456  0.2284E+02  0.1025E+03
    -16.441  0.2275E+02  0.1028E+03
    -16.425  0.2265E+02  0.1032E+03
    -16.410  0.2256E+02  0.1035E+03
    -16.395  0.2246E+02  0.1039E+03
    -16.380  0.2236E+02  0.1042E+03
    -16.365  0.2226E+02  0.1045E+03
    -16.349  0.2215E+02  0.1049E+03
    -16.334  0.2203E+02  0.1052E+03
    -16.319  0.2190E+02  0.1056E+03
    -16.304  0.2177E+02  0.1059E+03
    -16.289  0.2163E+02  0.1062E+03
    -16.273  0.2149E+02  0.1065E+03
    -16.258  0.2135E+02  0.1069E+03
    -16.243  0.2120E+02  0.1072E+03
    -16.228  0.2106E+02  0.1075E+03
    -16.213  0.2093E+02  0.1078E+03
    -16.197  0.2082E+02  0.1081E+03
    -16.182  0.2072E+02  0.1085E+03
    -16.167  0.2064E+02  0.1088E+03
    -16.152  0.2059E+02  0.1091E+03
    -16.137  0.2057E+02  0.1094E+03
    -16.121  0.2057E+02  0.1097E+03
    -16.106  0.2061E+02  0.1100E+03
    -16.091  0.2068E+02  0.1103E+03
    -16.076  0.2077E+02  0.1107E+03
    -16.061  0.2089E+02  0.1110E+03
    -16.045  0.2103E+02  0.1113E+03
    -16.030  0.2118E+02  0.1116E+03
    -16.015  0.2134E+02  0.1119E+03
    -16.000  0.2149E+02  0.1123E+03
    -15.985  0.2165E+02  0.1126E+03
    -15.969  0.2178E+02  0.1129E+03
    -15.954  0.2189E+02  0.1133E+03
    -15.939  0.2198E+02  0.1136E+03
    -15.924  0.2203E+02  0.1139E+03
    -15.909  0.2205E+02  0.1143E+03
    -15.893  0.2203E+02  0.1146E+03
    -15.878  0.2197E+02  0.1149E+03
    -15.863  0.2187E+02  0.1153E+03
    -15.848  0.2174E+02  0.1156E+03
    -15.832  0.2158E+02  0.1159E+03
    -15.817  0.2140E+02  0.1162E+03
    -15.802  0.2120E+02  0.1166E+03
    -15.787  0.2100E+02  0.1169E+03
    -15.772  0.2079E+02  0.1172E+03
    -15.756  0.2059E+02  0.1175E+03
    -15.741  0.2041E+02  0.1178E+03
    -15.726  0.2025E+02  0.1181E+03
    -15.711  0.2012E+02  0.1184E+03
    -15.696  0.2002E+02  0.1187E+03
    -15.680  0.1996E+02  0.1191E+03
    -15.665  0.1994E+02  0.1194E+03
    -15.650  0.1995E+02  0.1197E+03
    -15.635  0.1999E+02  0.1200E+03
    -15.620  0.2007E+02  0.1203E+03
    -15.604  0.2016E+02  0.1206E+03
    -15.589  0.2027E+02  0.1209E+03
    -15.574  0.2039E+02  0.1212E+03
    -15.559  0.2050E+02  0.1215E+03
    -15.544  0.2060E+02  0.1218E+03
    -15.528  0.2068E+02  0.1221E+03
    -15.513  0.2073E+02  0.1224E+03
    -15.498  0.2075E+02  0.1228E+03
    -15.483  0.2073E+02  0.1231E+03
    -15.468  0.2067E+02  0.1234E+03
    -15.452  0.2057E+02  0.1237E+03
    -15.437  0.2043E+02  0.1240E+03
    -15.422  0.2026E+02  0.1243E+03
    -15.407  0.2006E+02  0.1246E+03
    -15.392  0.1984E+02  0.1249E+03
    -15.376  0.1961E+02  0.1252E+03
    -15.361  0.1938E+02  0.1255E+03
    -15.346  0.1915E+02  0.1258E+03
    -15.331  0.1894E+02  0.1261E+03
    -15.316  0.1876E+02  0.1264E+03
    -15.300  0.1861E+02  0.1267E+03
    -15.285  0.1850E+02  0.1270E+03
    -15.270  0.1842E+02  0.1272E+03
    -15.255  0.1839E+02  0.1275E+03
    -15.239  0.1840E+02  0.1278E+03
    -15.224  0.1846E+02  0.1281E+03
    -15.209  0.1854E+02  0.1284E+03
    -15.194  0.1867E+02  0.1286E+03
    -15.179  0.1881E+02  0.1289E+03
    -15.163  0.1898E+02  0.1292E+03
    -15.148  0.1916E+02  0.1295E+03
    -15.133  0.1935E+02  0.1298E+03
    -15.118  0.1955E+02  0.1301E+03
    -15.103  0.1974E+02  0.1304E+03
    -15.087  0.1992E+02  0.1307E+03
    -15.072  0.2009E+02  0.1310E+03
    -15.057  0.2025E+02  0.1313E+03
    -15.042  0.2040E+02  0.1316E+03
    -15.027  0.2054E+02  0.1319E+03
    -15.011  0.2066E+02  0.1322E+03
    -14.996  0.2078E+02  0.1326E+03
    -14.981  0.2089E+02  0.1329E+03
    -14.966  0.2099E+02  0.1332E+03
    -14.951  0.2109E+02  0.1335E+03
    -14.935  0.2118E+02  0.1338E+03
    -14.920  0.2127E+02  0.1342E+03
    -14.905  0.2135E+02  0.1345E+03
    -14.890  0.2143E+02  0.1348E+03
    -14.875  0.2150E+02  0.1351E+03
    -14.859  0.2156E+02  0.1355E+03
    -14.844  0.2162E+02  0.1358E+03
    -14.829  0.2166E+02  0.1361E+03
    -14.814  0.2169E+02  0.1365E+03
    -14.799  0.2170E+02  0.1368E+03
    -14.783  0.2170E+02  0.1371E+03
    -14.768  0.2169E+02  0.1374E+03
    -14.753  0.2166E+02  0.1378E+03
    -14.738  0.2161E+02  0.1381E+03
    -14.723  0.2156E+02  0.1384E+03
    -14.707  0.2150E+02  0.1388E+03
    -14.692  0.2143E+02  0.1391E+03
    -14.677  0.2137E+02  0.1394E+03
    -14.662  0.2130E+02  0.1397E+03
    -14.646  0.2124E+02  0.1401E+03
    -14.631  0.2119E+02  0.1404E+03
    -14.616  0.2115E+02  0.1407E+03
    -14.601  0.2112E+02  0.1410E+03
    -14.586  0.2110E+02  0.1413E+03
    -14.570  0.2109E+02  0.1417E+03
    -14.555  0.2110E+02  0.1420E+03
    -14.540  0.2112E+02  0.1423E+03
    -14.525  0.2114E+02  0.1426E+03
    -14.510  0.2118E+02  0.1430E+03
    -14.494  0.2121E+02  0.1433E+03
    -14.479  0.2125E+02  0.1436E+03
    -14.464  0.2129E+02  0.1439E+03
    -14.449  0.2134E+02  0.1442E+03
    -14.434  0.2138E+02  0.1446E+03
    -14.418  0.2142E+02  0.1449E+03
    -14.403  0.2146E+02  0.1452E+03
    -14.388  0.2150E+02  0.1455E+03
    -14.373  0.2154E+02  0.1459E+03
    -14.358  0.2158E+02  0.1462E+03
    -14.342  0.2163E+02  0.1465E+03
    -14.327  0.2168E+02  0.1469E+03
    -14.312  0.2174E+02  0.1472E+03
    -14.297  0.2179E+02  0.1475E+03
    -14.282  0.2185E+02  0.1479E+03
    -14.266  0.2191E+02  0.1482E+03
    -14.251  0.2197E+02  0.1485E+03
    -14.236  0.2202E+02  0.1489E+03
    -14.221  0.2206E+02  0.1492E+03
    -14.206  0.2209E+02  0.1495E+03
    -14.190  0.2210E+02  0.1499E+03
    -14.175  0.2209E+02  0.1502E+03
    -14.160  0.2206E+02  0.1505E+03
    -14.145  0.2201E+02  0.1509E+03
    -14.130  0.2194E+02  0.1512E+03
    -14.114  0.2184E+02  0.1515E+03
    -14.099  0.2173E+02  0.1519E+03
    -14.084  0.2160E+02  0.1522E+03
    -14.069  0.2146E+02  0.1525E+03
    -14.053  0.2132E+02  0.1528E+03
    -14.038  0.2117E+02  0.1532E+03
    -14.023  0.2103E+02  0.1535E+03
    -14.008  0.2091E+02  0.1538E+03
    -13.993  0.2080E+02  0.1541E+03
    -13.977  0.2072E+02  0.1544E+03
    -13.962  0.2067E+02  0.1548E+03
    -13.947  0.2066E+02  0.1551E+03
    -13.932  0.2068E+02  0.1554E+03
    -13.917  0.2074E+02  0.1557E+03
    -13.901  0.2083E+02  0.1560E+03
    -13.886  0.2096E+02  0.1563E+03
    -13.871  0.2113E+02  0.1567E+03
    -13.856  0.2132E+02  0.1570E+03
    -13.841  0.2153E+02  0.1573E+03
    -13.825  0.2176E+02  0.1576E+03
    -13.810  0.2200E+02  0.1580E+03
    -13.795  0.2224E+02  0.1583E+03
    -13.780  0.2247E+02  0.1586E+03
    -13.765  0.2269E+02  0.1590E+03
    -13.749  0.2288E+02  0.1593E+03
    -13.734  0.2305E+02  0.1597E+03
    -13.719  0.2319E+02  0.1600E+03
    -13.704  0.2331E+02  0.1604E+03
    -13.689  0.2338E+02  0.1608E+03
    -13.673  0.2343E+02  0.1611E+03
    -13.658  0.2346E+02  0.1615E+03
    -13.643  0.2346E+02  0.1618E+03
    -13.628  0.2344E+02  0.1622E+03
    -13.613  0.2340E+02  0.1625E+03
    -13.597  0.2336E+02  0.1629E+03
    -13.582  0.2332E+02  0.1632E+03
    -13.567  0.2328E+02  0.1636E+03
    -13.552  0.2324E+02  0.1640E+03
    -13.537  0.2321E+02  0.1643E+03
    -13.521  0.2319E+02  0.1647E+03
    -13.506  0.2317E+02  0.1650E+03
    -13.491  0.2317E+02  0.1654E+03
    -13.476  0.2316E+02  0.1657E+03
    -13.460  0.2316E+02  0.1661E+03
    -13.445  0.2317E+02  0.1664E+03
    -13.430  0.2317E+02  0.1668E+03
    -13.415  0.2316E+02  0.1671E+03
    -13.400  0.2315E+02  0.1675E+03
    -13.384  0.2313E+02  0.1678E+03
    -13.369  0.2311E+02  0.1682E+03
    -13.354  0.2308E+02  0.1685E+03
    -13.339  0.2304E+02  0.1689E+03
    -13.324  0.2299E+02  0.1692E+03
    -13.308  0.2294E+02  0.1696E+03
    -13.293  0.2288E+02  0.1699E+03
    -13.278  0.2283E+02  0.1703E+03
    -13.263  0.2277E+02  0.1706E+03
    -13.248  0.2272E+02  0.1710E+03
    -13.232  0.2266E+02  0.1713E+03
    -13.217  0.2262E+02  0.1717E+03
    -13.202  0.2258E+02  0.1720E+03
    -13.187  0.2255E+02  0.1723E+03
    -13.172  0.2253E+02  0.1727E+03
    -13.156  0.2252E+02  0.1730E+03
    -13.141  0.2252E+02  0.1734E+03
    -13.126  0.2254E+02  0.1737E+03
    -13.111  0.2257E+02  0.1741E+03
    -13.096  0.2262E+02  0.1744E+03
    -13.080  0.2269E+02  0.1747E+03
    -13.065  0.2277E+02  0.1751E+03
    -13.050  0.2288E+02  0.1754E+03
    -13.035  0.2299E+02  0.1758E+03
    -13.020  0.2312E+02  0.1761E+03
    -13.004  0.2326E+02  0.1765E+03
    -12.989  0.2340E+02  0.1768E+03
    -12.974  0.2354E+02  0.1772E+03
    -12.959  0.2367E+02  0.1776E+03
    -12.944  0.2380E+02  0.1779E+03
    -12.928  0.2390E+02  0.1783E+03
    -12.913  0.2398E+02  0.1787E+03
    -12.898  0.2404E+02  0.1790E+03
    -12.883  0.2406E+02  0.1794E+03
    -12.867  0.2405E+02  0.1798E+03
    -12.852  0.2400E+02  0.1801E+03
    -12.837  0.2392E+02  0.1805E+03
    -12.822  0.2380E+02  0.1808E+03
    -12.807  0.2366E+02  0.1812E+03
    -12.791  0.2349E+02  0.1816E+03
    -12.776  0.2330E+02  0.1819E+03
    -12.761  0.2311E+02  0.1823E+03
    -12.746  0.2291E+02  0.1826E+03
    -12.731  0.2272E+02  0.1830E+03
    -12.715  0.2254E+02  0.1833E+03
    -12.700  0.2239E+02  0.1836E+03
    -12.685  0.2226E+02  0.1840E+03
    -12.670  0.2216E+02  0.1843E+03
    -12.655  0.2210E+02  0.1847E+03
    -12.639  0.2208E+02  0.1850E+03
    -12.624  0.2209E+02  0.1853E+03
    -12.609  0.2214E+02  0.1857E+03
    -12.594  0.2221E+02  0.1860E+03
    -12.579  0.2232E+02  0.1863E+03
    -12.563  0.2244E+02  0.1867E+03
    -12.548  0.2257E+02  0.1870E+03
    -12.533  0.2270E+02  0.1874E+03
    -12.518  0.2283E+02  0.1877E+03
    -12.503  0.2295E+02  0.1881E+03
    -12.487  0.2305E+02  0.1884E+03
    -12.472  0.2312E+02  0.1888E+03
    -12.457  0.2316E+02  0.1891E+03
    -12.442  0.2317E+02  0.1895E+03
    -12.427  0.2313E+02  0.1898E+03
    -12.411  0.2305E+02  0.1902E+03
    -12.396  0.2293E+02  0.1905E+03
    -12.381  0.2277E+02  0.1909E+03
    -12.366  0.2257E+02  0.1912E+03
    -12.351  0.2233E+02  0.1916E+03
    -12.335  0.2206E+02  0.1919E+03
    -12.320  0.2177E+02  0.1922E+03
    -12.305  0.2145E+02  0.1925E+03
    -12.290  0.2112E+02  0.1929E+03
    -12.275  0.2079E+02  0.1932E+03
    -12.259  0.2046E+02  0.1935E+03
    -12.244  0.2014E+02  0.1938E+03
    -12.229  0.1983E+02  0.1941E+03
    -12.214  0.1955E+02  0.1944E+03