 138 138   0   0
  0.4875679E+02  0.2856186E-08  0.1177871E-08  0.2000000E-08  0.5000000E-15
  1.000000000000000E-004
  CAR 
 unknown system                          
      3.43973102    -24.69185615 2000     -3.59362930      1.00000000
    -24.692  0.0000E+00  0.0000E+00
    -24.678  0.0000E+00  0.0000E+00
    -24.664  0.0000E+00  0.0000E+00
    -24.650  0.0000E+00  0.0000E+00
    -24.636  0.0000E+00  0.0000E+00
    -24.621  0.0000E+00  0.0000E+00
    -24.607  0.0000E+00  0.0000E+00
    -24.593  0.0000E+00  0.0000E+00
    -24.579  0.0000E+00  0.0000E+00
    -24.565  0.0000E+00  0.0000E+00
    -24.551  0.0000E+00  0.0000E+00
    -24.537  0.0000E+00  0.0000E+00
    -24.523  0.0000E+00  0.0000E+00
    -24.509  0.0000E+00  0.0000E+00
    -24.495  0.0000E+00  0.0000E+00
    -24.481  0.0000E+00  0.0000E+00
    -24.467  0.0000E+00  0.0000E+00
    -24.453  0.0000E+00  0.0000E+00
    -24.439  0.0000E+00  0.0000E+00
    -24.424  0.0000E+00  0.0000E+00
    -24.410  0.0000E+00  0.0000E+00
    -24.396  0.0000E+00  0.0000E+00
    -24.382  0.0000E+00  0.0000E+00
    -24.368  0.0000E+00  0.0000E+00
    -24.354  0.0000E+00  0.0000E+00
    -24.340  0.0000E+00  0.0000E+00
    -24.326  0.0000E+00  0.0000E+00
    -24.312  0.0000E+00  0.0000E+00
    -24.298  0.0000E+00  0.0000E+00
    -24.284  0.0000E+00  0.0000E+00
    -24.270  0.0000E+00  0.0000E+00
    -24.256  0.0000E+00  0.0000E+00
    -24.242  0.0000E+00  0.0000E+00
    -24.227  0.0000E+00  0.0000E+00
    -24.213  0.0000E+00  0.0000E+00
    -24.199  0.0000E+00  0.0000E+00
    -24.185  0.0000E+00  0.0000E+00
    -24.171  0.0000E+00  0.0000E+00
    -24.157  0.0000E+00  0.0000E+00
    -24.143  0.0000E+00  0.0000E+00
    -24.129  0.0000E+00  0.0000E+00
    -24.115  0.0000E+00  0.0000E+00
    -24.101  0.0000E+00  0.0000E+00
    -24.087  0.0000E+00  0.0000E+00
    -24.073  0.0000E+00  0.0000E+00
    -24.059  0.0000E+00  0.0000E+00
    -24.045  0.0000E+00  0.0000E+00
    -24.030  0.0000E+00  0.0000E+00
    -24.016  0.0000E+00  0.0000E+00
    -24.002  0.0000E+00  0.0000E+00
    -23.988  0.0000E+00  0.0000E+00
    -23.974  0.0000E+00  0.0000E+00
    -23.960  0.0000E+00  0.0000E+00
    -23.946  0.0000E+00  0.0000E+00
    -23.932  0.0000E+00  0.0000E+00
    -23.918  0.0000E+00  0.0000E+00
    -23.904  0.0000E+00  0.0000E+00
    -23.890  0.0000E+00  0.0000E+00
    -23.876  0.2630E-14  0.3701E-16
    -23.862  0.5259E-14  0.1110E-15
    -23.847  0.5259E-14  0.1850E-15
    -23.833  0.1841E-13  0.4441E-15
    -23.819  0.4208E-13  0.1036E-14
    -23.805  0.8678E-13  0.2257E-14
    -23.791  0.1946E-12  0.4996E-14
    -23.777  0.4234E-12  0.1095E-13
    -23.763  0.9178E-12  0.2387E-13
    -23.749  0.1947E-11  0.5127E-13
    -23.735  0.4123E-11  0.1093E-12
    -23.721  0.8612E-11  0.2305E-12
    -23.707  0.1784E-10  0.4816E-12
    -23.693  0.3659E-10  0.9965E-12
    -23.679  0.7430E-10  0.2042E-11
    -23.665  0.1494E-09  0.4144E-11
    -23.650  0.2974E-09  0.8330E-11
    -23.636  0.5863E-09  0.1658E-10
    -23.622  0.1144E-08  0.3268E-10
    -23.608  0.2212E-08  0.6381E-10
    -23.594  0.4233E-08  0.1234E-09
    -23.580  0.8020E-08  0.2362E-09
    -23.566  0.1505E-07  0.4480E-09
    -23.552  0.2796E-07  0.8415E-09
    -23.538  0.5143E-07  0.1565E-08
    -23.524  0.9369E-07  0.2884E-08
    -23.510  0.1690E-06  0.5262E-08
    -23.496  0.3018E-06  0.9509E-08
    -23.482  0.5337E-06  0.1702E-07
    -23.468  0.9345E-06  0.3017E-07
    -23.453  0.1620E-05  0.5297E-07
    -23.439  0.2782E-05  0.9212E-07
    -23.425  0.4728E-05  0.1587E-06
    -23.411  0.7959E-05  0.2707E-06
    -23.397  0.1326E-04  0.4573E-06
    -23.383  0.2189E-04  0.7654E-06
    -23.369  0.3577E-04  0.1269E-05
    -23.355  0.5788E-04  0.2083E-05
    -23.341  0.9273E-04  0.3388E-05
    -23.327  0.1471E-03  0.5458E-05
    -23.313  0.2311E-03  0.8710E-05
    -23.299  0.3594E-03  0.1377E-04
    -23.285  0.5535E-03  0.2156E-04
    -23.271  0.8441E-03  0.3344E-04
    -23.256  0.1275E-02  0.5137E-04
    -23.242  0.1906E-02  0.7819E-04
    -23.228  0.2821E-02  0.1179E-03
    -23.214  0.4135E-02  0.1761E-03
    -23.200  0.6003E-02  0.2606E-03
    -23.186  0.8627E-02  0.3820E-03
    -23.172  0.1228E-01  0.5547E-03
    -23.158  0.1730E-01  0.7982E-03
    -23.144  0.2414E-01  0.1138E-02
    -23.130  0.3335E-01  0.1607E-02
    -23.116  0.4562E-01  0.2249E-02
    -23.102  0.6180E-01  0.3119E-02
    -23.088  0.8289E-01  0.4285E-02
    -23.073  0.1101E+00  0.5835E-02
    -23.059  0.1448E+00  0.7872E-02
    -23.045  0.1885E+00  0.1052E-01
    -23.031  0.2430E+00  0.1394E-01
    -23.017  0.3103E+00  0.1831E-01
    -23.003  0.3922E+00  0.2383E-01
    -22.989  0.4909E+00  0.3074E-01
    -22.975  0.6085E+00  0.3930E-01
    -22.961  0.7468E+00  0.4981E-01
    -22.947  0.9075E+00  0.6258E-01
    -22.933  0.1092E+01  0.7795E-01
    -22.919  0.1301E+01  0.9626E-01
    -22.905  0.1535E+01  0.1179E+00
    -22.891  0.1793E+01  0.1431E+00
    -22.876  0.2075E+01  0.1723E+00
    -22.862  0.2377E+01  0.2057E+00
    -22.848  0.2696E+01  0.2437E+00
    -22.834  0.3029E+01  0.2863E+00
    -22.820  0.3370E+01  0.3337E+00
    -22.806  0.3713E+01  0.3860E+00
    -22.792  0.4052E+01  0.4430E+00
    -22.778  0.4380E+01  0.5047E+00
    -22.764  0.4689E+01  0.5706E+00
    -22.750  0.4974E+01  0.6406E+00
    -22.736  0.5228E+01  0.7142E+00
    -22.722  0.5445E+01  0.7908E+00
    -22.708  0.5622E+01  0.8700E+00
    -22.694  0.5756E+01  0.9510E+00
    -22.679  0.5846E+01  0.1033E+01
    -22.665  0.5893E+01  0.1116E+01
    -22.651  0.5900E+01  0.1199E+01
    -22.637  0.5871E+01  0.1282E+01
    -22.623  0.5813E+01  0.1364E+01
    -22.609  0.5734E+01  0.1444E+01
    -22.595  0.5642E+01  0.1524E+01
    -22.581  0.5548E+01  0.1602E+01
    -22.567  0.5461E+01  0.1679E+01
    -22.553  0.5392E+01  0.1755E+01
    -22.539  0.5350E+01  0.1830E+01
    -22.525  0.5346E+01  0.1905E+01
    -22.511  0.5385E+01  0.1981E+01
    -22.496  0.5475E+01  0.2058E+01
    -22.482  0.5621E+01  0.2137E+01
    -22.468  0.5823E+01  0.2219E+01
    -22.454  0.6085E+01  0.2305E+01
    -22.440  0.6403E+01  0.2395E+01
    -22.426  0.6775E+01  0.2490E+01
    -22.412  0.7197E+01  0.2591E+01
    -22.398  0.7661E+01  0.2699E+01
    -22.384  0.8161E+01  0.2814E+01
    -22.370  0.8688E+01  0.2936E+01
    -22.356  0.9233E+01  0.3066E+01
    -22.342  0.9788E+01  0.3204E+01
    -22.328  0.1034E+02  0.3349E+01
    -22.314  0.1089E+02  0.3503E+01
    -22.299  0.1142E+02  0.3663E+01
    -22.285  0.1193E+02  0.3831E+01
    -22.271  0.1241E+02  0.4006E+01
    -22.257  0.1285E+02  0.4187E+01
    -22.243  0.1326E+02  0.4373E+01
    -22.229  0.1362E+02  0.4565E+01
    -22.215  0.1394E+02  0.4761E+01
    -22.201  0.1422E+02  0.4961E+01
    -22.187  0.1445E+02  0.5165E+01
    -22.173  0.1464E+02  0.5371E+01
    -22.159  0.1479E+02  0.5579E+01
    -22.145  0.1489E+02  0.5788E+01
    -22.131  0.1495E+02  0.5999E+01
    -22.117  0.1498E+02  0.6210E+01
    -22.102  0.1496E+02  0.6420E+01
    -22.088  0.1491E+02  0.6630E+01
    -22.074  0.1482E+02  0.6839E+01
    -22.060  0.1470E+02  0.7045E+01
    -22.046  0.1454E+02  0.7250E+01
    -22.032  0.1436E+02  0.7452E+01
    -22.018  0.1414E+02  0.7651E+01
    -22.004  0.1390E+02  0.7847E+01
    -21.990  0.1363E+02  0.8039E+01
    -21.976  0.1335E+02  0.8227E+01
    -21.962  0.1306E+02  0.8410E+01
    -21.948  0.1277E+02  0.8590E+01
    -21.934  0.1249E+02  0.8766E+01
    -21.920  0.1222E+02  0.8938E+01
    -21.905  0.1198E+02  0.9106E+01
    -21.891  0.1177E+02  0.9272E+01
    -21.877  0.1161E+02  0.9435E+01
    -21.863  0.1150E+02  0.9597E+01
    -21.849  0.1146E+02  0.9759E+01
    -21.835  0.1148E+02  0.9920E+01
    -21.821  0.1158E+02  0.1008E+02
    -21.807  0.1175E+02  0.1025E+02
    -21.793  0.1200E+02  0.1042E+02
    -21.779  0.1231E+02  0.1059E+02
    -21.765  0.1269E+02  0.1077E+02
    -21.751  0.1312E+02  0.1095E+02
    -21.737  0.1359E+02  0.1114E+02
    -21.722  0.1409E+02  0.1134E+02
    -21.708  0.1461E+02  0.1155E+02
    -21.694  0.1513E+02  0.1176E+02
    -21.680  0.1563E+02  0.1198E+02
    -21.666  0.1611E+02  0.1221E+02
    -21.652  0.1654E+02  0.1244E+02
    -21.638  0.1692E+02  0.1268E+02
    -21.624  0.1724E+02  0.1292E+02
    -21.610  0.1748E+02  0.1317E+02
    -21.596  0.1766E+02  0.1342E+02
    -21.582  0.1775E+02  0.1367E+02
    -21.568  0.1778E+02  0.1392E+02
    -21.554  0.1773E+02  0.1417E+02
    -21.540  0.1762E+02  0.1441E+02
    -21.525  0.1746E+02  0.1466E+02
    -21.511  0.1726E+02  0.1490E+02
    -21.497  0.1703E+02  0.1514E+02
    -21.483  0.1678E+02  0.1538E+02
    -21.469  0.1653E+02  0.1561E+02
    -21.455  0.1628E+02  0.1584E+02
    -21.441  0.1606E+02  0.1607E+02
    -21.427  0.1587E+02  0.1629E+02
    -21.413  0.1572E+02  0.1651E+02
    -21.399  0.1562E+02  0.1673E+02
    -21.385  0.1557E+02  0.1695E+02
    -21.371  0.1559E+02  0.1717E+02
    -21.357  0.1567E+02  0.1739E+02
    -21.343  0.1581E+02  0.1761E+02
    -21.328  0.1602E+02  0.1784E+02
    -21.314  0.1629E+02  0.1807E+02
    -21.300  0.1662E+02  0.1830E+02
    -21.286  0.1700E+02  0.1854E+02
    -21.272  0.1743E+02  0.1879E+02
    -21.258  0.1790E+02  0.1904E+02
    -21.244  0.1839E+02  0.1930E+02
    -21.230  0.1892E+02  0.1956E+02
    -21.216  0.1946E+02  0.1984E+02
    -21.202  0.2000E+02  0.2012E+02
    -21.188  0.2054E+02  0.2041E+02
    -21.174  0.2107E+02  0.2070E+02
    -21.160  0.2159E+02  0.2101E+02
    -21.146  0.2207E+02  0.2132E+02
    -21.131  0.2253E+02  0.2163E+02
    -21.117  0.2295E+02  0.2196E+02
    -21.103  0.2332E+02  0.2229E+02
    -21.089  0.2365E+02  0.2262E+02
    -21.075  0.2393E+02  0.2296E+02
    -21.061  0.2416E+02  0.2330E+02
    -21.047  0.2434E+02  0.2364E+02
    -21.033  0.2447E+02  0.2398E+02
    -21.019  0.2456E+02  0.2433E+02
    -21.005  0.2460E+02  0.2467E+02
    -20.991  0.2461E+02  0.2502E+02
    -20.977  0.2457E+02  0.2537E+02
    -20.963  0.2450E+02  0.2571E+02
    -20.948  0.2441E+02  0.2605E+02
    -20.934  0.2429E+02  0.2640E+02
    -20.920  0.2414E+02  0.2674E+02
    -20.906  0.2399E+02  0.2707E+02
    -20.892  0.2381E+02  0.2741E+02
    -20.878  0.2363E+02  0.2774E+02
    -20.864  0.2344E+02  0.2807E+02
    -20.850  0.2324E+02  0.2840E+02
    -20.836  0.2303E+02  0.2872E+02
    -20.822  0.2282E+02  0.2904E+02
    -20.808  0.2260E+02  0.2936E+02
    -20.794  0.2237E+02  0.2968E+02
    -20.780  0.2213E+02  0.2999E+02
    -20.766  0.2189E+02  0.3030E+02
    -20.751  0.2163E+02  0.3060E+02
    -20.737  0.2137E+02  0.3090E+02
    -20.723  0.2109E+02  0.3120E+02
    -20.709  0.2079E+02  0.3149E+02
    -20.695  0.2049E+02  0.3178E+02
    -20.681  0.2018E+02  0.3206E+02
    -20.667  0.1986E+02  0.3234E+02
    -20.653  0.1954E+02  0.3262E+02
    -20.639  0.1921E+02  0.3289E+02
    -20.625  0.1890E+02  0.3315E+02
    -20.611  0.1859E+02  0.3341E+02
    -20.597  0.1831E+02  0.3367E+02
    -20.583  0.1805E+02  0.3393E+02
    -20.569  0.1783E+02  0.3418E+02
    -20.554  0.1765E+02  0.3443E+02
    -20.540  0.1751E+02  0.3467E+02
    -20.526  0.1743E+02  0.3492E+02
    -20.512  0.1740E+02  0.3516E+02
    -20.498  0.1742E+02  0.3541E+02
    -20.484  0.1750E+02  0.3565E+02
    -20.470  0.1764E+02  0.3590E+02
    -20.456  0.1782E+02  0.3615E+02
    -20.442  0.1804E+02  0.3641E+02
    -20.428  0.1830E+02  0.3666E+02
    -20.414  0.1859E+02  0.3693E+02
    -20.400  0.1889E+02  0.3719E+02
    -20.386  0.1920E+02  0.3746E+02
    -20.371  0.1950E+02  0.3774E+02
    -20.357  0.1978E+02  0.3801E+02
    -20.343  0.2004E+02  0.3830E+02
    -20.329  0.2026E+02  0.3858E+02
    -20.315  0.2044E+02  0.3887E+02
    -20.301  0.2057E+02  0.3916E+02
    -20.287  0.2064E+02  0.3945E+02
    -20.273  0.2067E+02  0.3974E+02
    -20.259  0.2065E+02  0.4003E+02
    -20.245  0.2058E+02  0.4032E+02
    -20.231  0.2048E+02  0.4061E+02
    -20.217  0.2034E+02  0.4089E+02
    -20.203  0.2017E+02  0.4118E+02
    -20.189  0.2000E+02  0.4146E+02
    -20.174  0.1981E+02  0.4174E+02
    -20.160  0.1964E+02  0.4202E+02
    -20.146  0.1947E+02  0.4229E+02
    -20.132  0.1933E+02  0.4256E+02
    -20.118  0.1922E+02  0.4283E+02
    -20.104  0.1914E+02  0.4310E+02
    -20.090  0.1910E+02  0.4337E+02
    -20.076  0.1910E+02  0.4364E+02
    -20.062  0.1914E+02  0.4391E+02
    -20.048  0.1922E+02  0.4418E+02
    -20.034  0.1934E+02  0.4445E+02
    -20.020  0.1948E+02  0.4473E+02
    -20.006  0.1966E+02  0.4500E+02
    -19.992  0.1986E+02  0.4528E+02
    -19.977  0.2008E+02  0.4556E+02
    -19.963  0.2030E+02  0.4585E+02
    -19.949  0.2054E+02  0.4614E+02
    -19.935  0.2078E+02  0.4643E+02
    -19.921  0.2101E+02  0.4673E+02
    -19.907  0.2124E+02  0.4703E+02
    -19.893  0.2145E+02  0.4733E+02
    -19.879  0.2166E+02  0.4763E+02
    -19.865  0.2185E+02  0.4794E+02
    -19.851  0.2202E+02  0.4825E+02
    -19.837  0.2218E+02  0.4856E+02
    -19.823  0.2232E+02  0.4888E+02
    -19.809  0.2244E+02  0.4919E+02
    -19.795  0.2254E+02  0.4951E+02
    -19.780  0.2263E+02  0.4983E+02
    -19.766  0.2269E+02  0.5015E+02
    -19.752  0.2274E+02  0.5047E+02
    -19.738  0.2276E+02  0.5079E+02
    -19.724  0.2277E+02  0.5111E+02
    -19.710  0.2276E+02  0.5143E+02
    -19.696  0.2273E+02  0.5175E+02
    -19.682  0.2269E+02  0.5207E+02
    -19.668  0.2263E+02  0.5239E+02
    -19.654  0.2255E+02  0.5270E+02
    -19.640  0.2247E+02  0.5302E+02
    -19.626  0.2237E+02  0.5333E+02
    -19.612  0.2227E+02  0.5365E+02
    -19.597  0.2216E+02  0.5396E+02
    -19.583  0.2205E+02  0.5427E+02
    -19.569  0.2194E+02  0.5458E+02
    -19.555  0.2182E+02  0.5488E+02
    -19.541  0.2171E+02  0.5519E+02
    -19.527  0.2159E+02  0.5549E+02
    -19.513  0.2148E+02  0.5580E+02
    -19.499  0.2136E+02  0.5610E+02
    -19.485  0.2125E+02  0.5640E+02
    -19.471  0.2113E+02  0.5669E+02
    -19.457  0.2101E+02  0.5699E+02
    -19.443  0.2089E+02  0.5728E+02
    -19.429  0.2077E+02  0.5758E+02
    -19.415  0.2064E+02  0.5787E+02
    -19.400  0.2052E+02  0.5815E+02
    -19.386  0.2039E+02  0.5844E+02
    -19.372  0.2026E+02  0.5873E+02
    -19.358  0.2013E+02  0.5901E+02
    -19.344  0.2001E+02  0.5929E+02
    -19.330  0.1989E+02  0.5957E+02
    -19.316  0.1978E+02  0.5985E+02
    -19.302  0.1967E+02  0.6013E+02
    -19.288  0.1957E+02  0.6040E+02
    -19.274  0.1949E+02  0.6068E+02
    -19.260  0.1941E+02  0.6095E+02
    -19.246  0.1934E+02  0.6122E+02
    -19.232  0.1929E+02  0.6149E+02
    -19.218  0.1925E+02  0.6176E+02
    -19.203  0.1921E+02  0.6203E+02
    -19.189  0.1919E+02  0.6230E+02
    -19.175  0.1918E+02  0.6257E+02
    -19.161  0.1918E+02  0.6284E+02
    -19.147  0.1920E+02  0.6311E+02
    -19.133  0.1922E+02  0.6339E+02
    -19.119  0.1926E+02  0.6366E+02
    -19.105  0.1931E+02  0.6393E+02
    -19.091  0.1937E+02  0.6420E+02
    -19.077  0.1945E+02  0.6447E+02
    -19.063  0.1954E+02  0.6475E+02
    -19.049  0.1965E+02  0.6503E+02
    -19.035  0.1977E+02  0.6530E+02
    -19.021  0.1991E+02  0.6558E+02
    -19.006  0.2006E+02  0.6587E+02
    -18.992  0.2023E+02  0.6615E+02
    -18.978  0.2040E+02  0.6644E+02
    -18.964  0.2059E+02  0.6673E+02
    -18.950  0.2078E+02  0.6702E+02
    -18.936  0.2097E+02  0.6732E+02
    -18.922  0.2117E+02  0.6761E+02
    -18.908  0.2136E+02  0.6791E+02
    -18.894  0.2155E+02  0.6822E+02
    -18.880  0.2174E+02  0.6852E+02
    -18.866  0.2191E+02  0.6883E+02
    -18.852  0.2207E+02  0.6914E+02
    -18.838  0.2222E+02  0.6946E+02
    -18.823  0.2236E+02  0.6977E+02
    -18.809  0.2248E+02  0.7009E+02
    -18.795  0.2258E+02  0.7040E+02
    -18.781  0.2267E+02  0.7072E+02
    -18.767  0.2275E+02  0.7104E+02
    -18.753  0.2280E+02  0.7136E+02
    -18.739  0.2285E+02  0.7169E+02
    -18.725  0.2287E+02  0.7201E+02
    -18.711  0.2289E+02  0.7233E+02
    -18.697  0.2289E+02  0.7265E+02
    -18.683  0.2288E+02  0.7297E+02
    -18.669  0.2286E+02  0.7330E+02
    -18.655  0.2283E+02  0.7362E+02
    -18.641  0.2280E+02  0.7394E+02
    -18.626  0.2276E+02  0.7426E+02
    -18.612  0.2272E+02  0.7458E+02
    -18.598  0.2267E+02  0.7490E+02
    -18.584  0.2263E+02  0.7521E+02
    -18.570  0.2259E+02  0.7553E+02
    -18.556  0.2256E+02  0.7585E+02
    -18.542  0.2253E+02  0.7617E+02
    -18.528  0.2250E+02  0.7648E+02
    -18.514  0.2248E+02  0.7680E+02
    -18.500  0.2247E+02  0.7712E+02
    -18.486  0.2246E+02  0.7743E+02
    -18.472  0.2245E+02  0.7775E+02
    -18.458  0.2245E+02  0.7806E+02
    -18.444  0.2245E+02  0.7838E+02
    -18.429  0.2244E+02  0.7870E+02
    -18.415  0.2244E+02  0.7901E+02
    -18.401  0.2243E+02  0.7933E+02
    -18.387  0.2242E+02  0.7964E+02
    -18.373  0.2240E+02  0.7996E+02
    -18.359  0.2237E+02  0.8027E+02
    -18.345  0.2233E+02  0.8059E+02
    -18.331  0.2228E+02  0.8090E+02
    -18.317  0.2223E+02  0.8121E+02
    -18.303  0.2217E+02  0.8153E+02
    -18.289  0.2210E+02  0.8184E+02
    -18.275  0.2202E+02  0.8215E+02
    -18.261  0.2194E+02  0.8246E+02
    -18.247  0.2186E+02  0.8276E+02
    -18.232  0.2177E+02  0.8307E+02
    -18.218  0.2169E+02  0.8337E+02
    -18.204  0.2161E+02  0.8368E+02
    -18.190  0.2153E+02  0.8398E+02
    -18.176  0.2145E+02  0.8428E+02
    -18.162  0.2139E+02  0.8458E+02
    -18.148  0.2132E+02  0.8488E+02
    -18.134  0.2126E+02  0.8518E+02
    -18.120  0.2121E+02  0.8548E+02
    -18.106  0.2116E+02  0.8578E+02
    -18.092  0.2111E+02  0.8608E+02
    -18.078  0.2107E+02  0.8637E+02
    -18.064  0.2102E+02  0.8667E+02
    -18.049  0.2097E+02  0.8696E+02
    -18.035  0.2092E+02  0.8726E+02
    -18.021  0.2086E+02  0.8755E+02
    -18.007  0.2080E+02  0.8785E+02
    -17.993  0.2073E+02  0.8814E+02
    -17.979  0.2066E+02  0.8843E+02
    -17.965  0.2058E+02  0.8872E+02
    -17.951  0.2050E+02  0.8901E+02
    -17.937  0.2042E+02  0.8929E+02
    -17.923  0.2035E+02  0.8958E+02
    -17.909  0.2027E+02  0.8986E+02
    -17.895  0.2021E+02  0.9015E+02
    -17.881  0.2016E+02  0.9043E+02
    -17.867  0.2012E+02  0.9072E+02
    -17.852  0.2010E+02  0.9100E+02
    -17.838  0.2009E+02  0.9128E+02
    -17.824  0.2010E+02  0.9156E+02
    -17.810  0.2013E+02  0.9185E+02
    -17.796  0.2018E+02  0.9213E+02
    -17.782  0.2024E+02  0.9242E+02
    -17.768  0.2032E+02  0.9270E+02
    -17.754  0.2041E+02  0.9299E+02
    -17.740  0.2051E+02  0.9328E+02
    -17.726  0.2061E+02  0.9357E+02
    -17.712  0.2072E+02  0.9386E+02
    -17.698  0.2084E+02  0.9415E+02
    -17.684  0.2096E+02  0.9445E+02
    -17.670  0.2108E+02  0.9474E+02
    -17.655  0.2121E+02  0.9504E+02
    -17.641  0.2134E+02  0.9534E+02
    -17.627  0.2147E+02  0.9565E+02
    -17.613  0.2161E+02  0.9595E+02
    -17.599  0.2176E+02  0.9626E+02
    -17.585  0.2192E+02  0.9656E+02
    -17.571  0.2210E+02  0.9688E+02
    -17.557  0.2228E+02  0.9719E+02
    -17.543  0.2248E+02  0.9751E+02
    -17.529  0.2270E+02  0.9783E+02
    -17.515  0.2293E+02  0.9815E+02
    -17.501  0.2318E+02  0.9847E+02
    -17.487  0.2343E+02  0.9880E+02
    -17.472  0.2370E+02  0.9914E+02
    -17.458  0.2396E+02  0.9947E+02
    -17.444  0.2422E+02  0.9982E+02
    -17.430  0.2448E+02  0.1002E+03
    -17.416  0.2472E+02  0.1005E+03
    -17.402  0.2494E+02  0.1009E+03
    -17.388  0.2514E+02  0.1012E+03
    -17.374  0.2531E+02  0.1016E+03
    -17.360  0.2544E+02  0.1019E+03
    -17.346  0.2553E+02  0.1023E+03
    -17.332  0.2558E+02  0.1026E+03
    -17.318  0.2559E+02  0.1030E+03
    -17.304  0.2555E+02  0.1034E+03
    -17.290  0.2546E+02  0.1037E+03
    -17.275  0.2533E+02  0.1041E+03
    -17.261  0.2516E+02  0.1044E+03
    -17.247  0.2494E+02  0.1048E+03
    -17.233  0.2469E+02  0.1051E+03
    -17.219  0.2441E+02  0.1055E+03
    -17.205  0.2410E+02  0.1058E+03
    -17.191  0.2376E+02  0.1062E+03
    -17.177  0.2341E+02  0.1065E+03
    -17.163  0.2306E+02  0.1068E+03
    -17.149  0.2269E+02  0.1071E+03
    -17.135  0.2233E+02  0.1074E+03
    -17.121  0.2198E+02  0.1077E+03
    -17.107  0.2164E+02  0.1081E+03
    -17.093  0.2133E+02  0.1084E+03
    -17.078  0.2104E+02  0.1086E+03
    -17.064  0.2078E+02  0.1089E+03
    -17.050  0.2056E+02  0.1092E+03
    -17.036  0.2037E+02  0.1095E+03
    -17.022  0.2023E+02  0.1098E+03
    -17.008  0.2012E+02  0.1101E+03
    -16.994  0.2006E+02  0.1104E+03
    -16.980  0.2005E+02  0.1106E+03
    -16.966  0.2007E+02  0.1109E+03
    -16.952  0.2013E+02  0.1112E+03
    -16.938  0.2022E+02  0.1115E+03
    -16.924  0.2033E+02  0.1118E+03
    -16.910  0.2047E+02  0.1121E+03
    -16.896  0.2062E+02  0.1124E+03
    -16.881  0.2078E+02  0.1127E+03
    -16.867  0.2094E+02  0.1130E+03
    -16.853  0.2109E+02  0.1132E+03
    -16.839  0.2123E+02  0.1135E+03
    -16.825  0.2135E+02  0.1138E+03
    -16.811  0.2145E+02  0.1141E+03
    -16.797  0.2152E+02  0.1145E+03
    -16.783  0.2158E+02  0.1148E+03
    -16.769  0.2161E+02  0.1151E+03
    -16.755  0.2162E+02  0.1154E+03
    -16.741  0.2161E+02  0.1157E+03
    -16.727  0.2159E+02  0.1160E+03
    -16.713  0.2156E+02  0.1163E+03
    -16.698  0.2152E+02  0.1166E+03
    -16.684  0.2149E+02  0.1169E+03
    -16.670  0.2147E+02  0.1172E+03
    -16.656  0.2147E+02  0.1175E+03
    -16.642  0.2148E+02  0.1178E+03
    -16.628  0.2152E+02  0.1181E+03
    -16.614  0.2159E+02  0.1184E+03
    -16.600  0.2168E+02  0.1187E+03
    -16.586  0.2180E+02  0.1190E+03
    -16.572  0.2195E+02  0.1193E+03
    -16.558  0.2213E+02  0.1196E+03
    -16.544  0.2233E+02  0.1199E+03
    -16.530  0.2255E+02  0.1203E+03
    -16.516  0.2279E+02  0.1206E+03
    -16.501  0.2305E+02  0.1209E+03
    -16.487  0.2331E+02  0.1212E+03
    -16.473  0.2358E+02  0.1216E+03
    -16.459  0.2384E+02  0.1219E+03
    -16.445  0.2409E+02  0.1222E+03
    -16.431  0.2434E+02  0.1226E+03
    -16.417  0.2456E+02  0.1229E+03
    -16.403  0.2476E+02  0.1233E+03
    -16.389  0.2493E+02  0.1236E+03
    -16.375  0.2506E+02  0.1240E+03
    -16.361  0.2517E+02  0.1243E+03
    -16.347  0.2523E+02  0.1247E+03
    -16.333  0.2526E+02  0.1250E+03
    -16.319  0.2526E+02  0.1254E+03
    -16.304  0.2522E+02  0.1258E+03
    -16.290  0.2516E+02  0.1261E+03
    -16.276  0.2507E+02  0.1265E+03
    -16.262  0.2496E+02  0.1268E+03
    -16.248  0.2483E+02  0.1272E+03
    -16.234  0.2470E+02  0.1275E+03
    -16.220  0.2457E+02  0.1279E+03
    -16.206  0.2444E+02  0.1282E+03
    -16.192  0.2432E+02  0.1285E+03
    -16.178  0.2421E+02  0.1289E+03
    -16.164  0.2411E+02  0.1292E+03
    -16.150  0.2403E+02  0.1296E+03
    -16.136  0.2397E+02  0.1299E+03
    -16.122  0.2391E+02  0.1302E+03
    -16.107  0.2388E+02  0.1306E+03
    -16.093  0.2384E+02  0.1309E+03
    -16.079  0.2382E+02  0.1312E+03
    -16.065  0.2379E+02  0.1316E+03
    -16.051  0.2376E+02  0.1319E+03
    -16.037  0.2371E+02  0.1322E+03
    -16.023  0.2366E+02  0.1326E+03
    -16.009  0.2359E+02  0.1329E+03
    -15.995  0.2350E+02  0.1332E+03
    -15.981  0.2339E+02  0.1336E+03
    -15.967  0.2326E+02  0.1339E+03
    -15.953  0.2312E+02  0.1342E+03
    -15.939  0.2296E+02  0.1345E+03
    -15.924  0.2280E+02  0.1349E+03
    -15.910  0.2262E+02  0.1352E+03
    -15.896  0.2245E+02  0.1355E+03
    -15.882  0.2228E+02  0.1358E+03
    -15.868  0.2212E+02  0.1361E+03
    -15.854  0.2198E+02  0.1364E+03
    -15.840  0.2185E+02  0.1367E+03
    -15.826  0.2175E+02  0.1370E+03
    -15.812  0.2168E+02  0.1373E+03
    -15.798  0.2164E+02  0.1377E+03
    -15.784  0.2163E+02  0.1380E+03
    -15.770  0.2165E+02  0.1383E+03
    -15.756  0.2170E+02  0.1386E+03
    -15.742  0.2178E+02  0.1389E+03
    -15.727  0.2188E+02  0.1392E+03
    -15.713  0.2201E+02  0.1395E+03
    -15.699  0.2215E+02  0.1398E+03
    -15.685  0.2231E+02  0.1401E+03
    -15.671  0.2247E+02  0.1404E+03
    -15.657  0.2263E+02  0.1408E+03
    -15.643  0.2279E+02  0.1411E+03
    -15.629  0.2295E+02  0.1414E+03
    -15.615  0.2309E+02  0.1417E+03
    -15.601  0.2321E+02  0.1420E+03
    -15.587  0.2332E+02  0.1424E+03
    -15.573  0.2341E+02  0.1427E+03
    -15.559  0.2347E+02  0.1430E+03
    -15.545  0.2352E+02  0.1434E+03
    -15.530  0.2354E+02  0.1437E+03
    -15.516  0.2355E+02  0.1440E+03
    -15.502  0.2353E+02  0.1444E+03
    -15.488  0.2350E+02  0.1447E+03
    -15.474  0.2345E+02  0.1450E+03
    -15.460  0.2339E+02  0.1453E+03
    -15.446  0.2333E+02  0.1457E+03
    -15.432  0.2325E+02  0.1460E+03
    -15.418  0.2317E+02  0.1463E+03
    -15.404  0.2308E+02  0.1467E+03
    -15.390  0.2299E+02  0.1470E+03
    -15.376  0.2290E+02  0.1473E+03
    -15.362  0.2280E+02  0.1476E+03
    -15.347  0.2271E+02  0.1479E+03
    -15.333  0.2262E+02  0.1483E+03
    -15.319  0.2253E+02  0.1486E+03
    -15.305  0.2244E+02  0.1489E+03
    -15.291  0.2235E+02  0.1492E+03
    -15.277  0.2227E+02  0.1495E+03
    -15.263  0.2219E+02  0.1498E+03
    -15.249  0.2212E+02  0.1501E+03
    -15.235  0.2206E+02  0.1505E+03
    -15.221  0.2200E+02  0.1508E+03
    -15.207  0.2196E+02  0.1511E+03
    -15.193  0.2193E+02  0.1514E+03
    -15.179  0.2191E+02  0.1517E+03
    -15.165  0.2191E+02  0.1520E+03
    -15.150  0.2192E+02  0.1523E+03
    -15.136  0.2194E+02  0.1526E+03
    -15.122  0.2197E+02  0.1529E+03
    -15.108  0.2201E+02  0.1532E+03
    -15.094  0.2206E+02  0.1535E+03
    -15.080  0.2211E+02  0.1539E+03
    -15.066  0.2216E+02  0.1542E+03
    -15.052  0.2221E+02  0.1545E+03
    -15.038  0.2225E+02  0.1548E+03
    -15.024  0.2227E+02  0.1551E+03
    -15.010  0.2228E+02  0.1554E+03
    -14.996  0.2228E+02  0.1557E+03
    -14.982  0.2225E+02  0.1560E+03
    -14.968  0.2221E+02  0.1564E+03
    -14.953  0.2216E+02  0.1567E+03
    -14.939  0.2208E+02  0.1570E+03
    -14.925  0.2200E+02  0.1573E+03
    -14.911  0.2191E+02  0.1576E+03
    -14.897  0.2182E+02  0.1579E+03
    -14.883  0.2173E+02  0.1582E+03
    -14.869  0.2165E+02  0.1585E+03
    -14.855  0.2158E+02  0.1588E+03
    -14.841  0.2153E+02  0.1591E+03
    -14.827  0.2149E+02  0.1594E+03
    -14.813  0.2148E+02  0.1597E+03
    -14.799  0.2150E+02  0.1600E+03
    -14.785  0.2154E+02  0.1603E+03
    -14.771  0.2161E+02  0.1606E+03
    -14.756  0.2169E+02  0.1609E+03
    -14.742  0.2180E+02  0.1613E+03
    -14.728  0.2191E+02  0.1616E+03
    -14.714  0.2204E+02  0.1619E+03
    -14.700  0.2217E+02  0.1622E+03
    -14.686  0.2230E+02  0.1625E+03
    -14.672  0.2243E+02  0.1628E+03
    -14.658  0.2254E+02  0.1631E+03
    -14.644  0.2263E+02  0.1634E+03
    -14.630  0.2271E+02  0.1638E+03
    -14.616  0.2277E+02  0.1641E+03
    -14.602  0.2280E+02  0.1644E+03
    -14.588  0.2282E+02  0.1647E+03
    -14.573  0.2281E+02  0.1651E+03
    -14.559  0.2278E+02  0.1654E+03
    -14.545  0.2274E+02  0.1657E+03
    -14.531  0.2268E+02  0.1660E+03
    -14.517  0.2262E+02  0.1663E+03
    -14.503  0.2254E+02  0.1666E+03
    -14.489  0.2246E+02  0.1670E+03
    -14.475  0.2238E+02  0.1673E+03
    -14.461  0.2231E+02  0.1676E+03
    -14.447  0.2224E+02  0.1679E+03
    -14.433  0.2218E+02  0.1682E+03
    -14.419  0.2213E+02  0.1685E+03
    -14.405  0.2209E+02  0.1688E+03
    -14.391  0.2206E+02  0.1691E+03
    -14.376  0.2205E+02  0.1695E+03
    -14.362  0.2206E+02  0.1698E+03
    -14.348  0.2208E+02  0.1701E+03
    -14.334  0.2211E+02  0.1704E+03
    -14.320  0.2216E+02  0.1707E+03
    -14.306  0.2223E+02  0.1710E+03
    -14.292  0.2231E+02  0.1713E+03
    -14.278  0.2241E+02  0.1716E+03
    -14.264  0.2252E+02  0.1720E+03
    -14.250  0.2265E+02  0.1723E+03
    -14.236  0.2278E+02  0.1726E+03
    -14.222  0.2293E+02  0.1729E+03
    -14.208  0.2308E+02  0.1732E+03
    -14.194  0.2324E+02  0.1736E+03
    -14.179  0.2340E+02  0.1739E+03
    -14.165  0.2356E+02  0.1742E+03
    -14.151  0.2373E+02  0.1746E+03
    -14.137  0.2389E+02  0.1749E+03
    -14.123  0.2404E+02  0.1752E+03
    -14.109  0.2419E+02  0.1756E+03
    -14.095  0.2432E+02  0.1759E+03
    -14.081  0.2444E+02  0.1763E+03
    -14.067  0.2455E+02  0.1766E+03
    -14.053  0.2463E+02  0.1770E+03
    -14.039  0.2470E+02  0.1773E+03
    -14.025  0.2475E+02  0.1777E+03
    -14.011  0.2478E+02  0.1780E+03
    -13.997  0.2479E+02  0.1784E+03
    -13.982  0.2478E+02  0.1787E+03
    -13.968  0.2474E+02  0.1791E+03
    -13.954  0.2468E+02  0.1794E+03
    -13.940  0.2460E+02  0.1797E+03
    -13.926  0.2451E+02  0.1801E+03
    -13.912  0.2439E+02  0.1804E+03
    -13.898  0.2425E+02  0.1808E+03
    -13.884  0.2410E+02  0.1811E+03
    -13.870  0.2393E+02  0.1815E+03
    -13.856  0.2375E+02  0.1818E+03
    -13.842  0.2355E+02  0.1821E+03
    -13.828  0.2336E+02  0.1824E+03
    -13.814  0.2315E+02  0.1828E+03
    -13.799  0.2295E+02  0.1831E+03
    -13.785  0.2275E+02  0.1834E+03
    -13.771  0.2256E+02  0.1837E+03
    -13.757  0.2239E+02  0.1840E+03
    -13.743  0.2222E+02  0.1844E+03
    -13.729  0.2208E+02  0.1847E+03
    -13.715  0.2196E+02  0.1850E+03
    -13.701  0.2187E+02  0.1853E+03
    -13.687  0.2180E+02  0.1856E+03
    -13.673  0.2177E+02  0.1859E+03
    -13.659  0.2176E+02  0.1862E+03
    -13.645  0.2179E+02  0.1865E+03
    -13.631  0.2186E+02  0.1868E+03
    -13.617  0.2195E+02  0.1871E+03
    -13.602  0.2208E+02  0.1874E+03
    -13.588  0.2224E+02  0.1878E+03
    -13.574  0.2243E+02  0.1881E+03
    -13.560  0.2265E+02  0.1884E+03
    -13.546  0.2289E+02  0.1887E+03
    -13.532  0.2316E+02  0.1890E+03
    -13.518  0.2344E+02  0.1894E+03
    -13.504  0.2375E+02  0.1897E+03
    -13.490  0.2407E+02  0.1900E+03
    -13.476  0.2441E+02  0.1904E+03
    -13.462  0.2475E+02  0.1907E+03
    -13.448  0.2511E+02  0.1911E+03
    -13.434  0.2547E+02  0.1914E+03
    -13.420  0.2584E+02  0.1918E+03
    -13.405  0.2621E+02  0.1922E+03
    -13.391  0.2658E+02  0.1926E+03
    -13.377  0.2695E+02  0.1929E+03
    -13.363  0.2732E+02  0.1933E+03
    -13.349  0.2769E+02  0.1937E+03
    -13.335  0.2804E+02  0.1941E+03
    -13.321  0.2839E+02  0.1945E+03
    -13.307  0.2872E+02  0.1949E+03
    -13.293  0.2904E+02  0.1953E+03
    -13.279  0.2933E+02  0.1957E+03
    -13.265  0.2961E+02  0.1961E+03
    -13.251  0.2985E+02  0.1966E+03
    -13.237  0.3006E+02  0.1970E+03
    -13.222  0.3023E+02  0.1974E+03
    -13.208  0.3036E+02  0.1978E+03
    -13.194  0.3044E+02  0.1983E+03
    -13.180  0.3048E+02  0.1987E+03
    -13.166  0.3046E+02  0.1991E+03
    -13.152  0.3040E+02  0.1996E+03
    -13.138  0.3028E+02  0.2000E+03
    -13.124  0.3011E+02  0.2004E+03
    -13.110  0.2990E+02  0.2008E+03
    -13.096  0.2964E+02  0.2012E+03
    -13.082  0.2934E+02  0.2017E+03