 191 191   0   0
  0.2633094E+02  0.2556000E-08  0.1967610E-08  0.1000000E-08  0.5000000E-15
  1.000000000000000E-004
  CAR 
 unknown system                          
      6.07183950    -24.02129858 2000     -1.26346551      1.00000000
    -24.021  0.0000E+00  0.0000E+00
    -24.006  0.0000E+00  0.0000E+00
    -23.991  0.0000E+00  0.0000E+00
    -23.976  0.0000E+00  0.0000E+00
    -23.961  0.0000E+00  0.0000E+00
    -23.946  0.0000E+00  0.0000E+00
    -23.931  0.0000E+00  0.0000E+00
    -23.916  0.0000E+00  0.0000E+00
    -23.901  0.0000E+00  0.0000E+00
    -23.886  0.0000E+00  0.0000E+00
    -23.871  0.0000E+00  0.0000E+00
    -23.856  0.0000E+00  0.0000E+00
    -23.841  0.0000E+00  0.0000E+00
    -23.826  0.0000E+00  0.0000E+00
    -23.811  0.0000E+00  0.0000E+00
    -23.795  0.0000E+00  0.0000E+00
    -23.780  0.0000E+00  0.0000E+00
    -23.765  0.0000E+00  0.0000E+00
    -23.750  0.0000E+00  0.0000E+00
    -23.735  0.0000E+00  0.0000E+00
    -23.720  0.0000E+00  0.0000E+00
    -23.705  0.0000E+00  0.0000E+00
    -23.690  0.0000E+00  0.0000E+00
    -23.675  0.0000E+00  0.0000E+00
    -23.660  0.0000E+00  0.0000E+00
    -23.645  0.0000E+00  0.0000E+00
    -23.630  0.0000E+00  0.0000E+00
    -23.615  0.0000E+00  0.0000E+00
    -23.600  0.0000E+00  0.0000E+00
    -23.585  0.0000E+00  0.0000E+00
    -23.570  0.0000E+00  0.0000E+00
    -23.555  0.0000E+00  0.0000E+00
    -23.540  0.0000E+00  0.0000E+00
    -23.525  0.0000E+00  0.0000E+00
    -23.509  0.0000E+00  0.0000E+00
    -23.494  0.0000E+00  0.0000E+00
    -23.479  0.0000E+00  0.0000E+00
    -23.464  0.0000E+00  0.0000E+00
    -23.449  0.0000E+00  0.0000E+00
    -23.434  0.0000E+00  0.0000E+00
    -23.419  0.0000E+00  0.0000E+00
    -23.404  0.0000E+00  0.0000E+00
    -23.389  0.0000E+00  0.0000E+00
    -23.374  0.0000E+00  0.0000E+00
    -23.359  0.0000E+00  0.0000E+00
    -23.344  0.0000E+00  0.0000E+00
    -23.329  0.0000E+00  0.0000E+00
    -23.314  0.0000E+00  0.0000E+00
    -23.299  0.0000E+00  0.0000E+00
    -23.284  0.0000E+00  0.0000E+00
    -23.269  0.0000E+00  0.0000E+00
    -23.254  0.0000E+00  0.0000E+00
    -23.238  0.0000E+00  0.0000E+00
    -23.223  0.0000E+00  0.0000E+00
    -23.208  0.0000E+00  0.0000E+00
    -23.193  0.7375E-14  0.1110E-15
    -23.178  0.1475E-13  0.3331E-15
    -23.163  0.2212E-13  0.6661E-15
    -23.148  0.6146E-13  0.1591E-14
    -23.133  0.1450E-12  0.3775E-14
    -23.118  0.3319E-12  0.8771E-14
    -23.103  0.7670E-12  0.2032E-13
    -23.088  0.1713E-11  0.4611E-13
    -23.073  0.3832E-11  0.1038E-12
    -23.058  0.8445E-11  0.2309E-12
    -23.043  0.1842E-10  0.5082E-12
    -23.028  0.3970E-10  0.1106E-11
    -23.013  0.8463E-10  0.2380E-11
    -22.998  0.1784E-09  0.5065E-11
    -22.983  0.3717E-09  0.1066E-10
    -22.968  0.7658E-09  0.2219E-10
    -22.952  0.1560E-08  0.4567E-10
    -22.937  0.3142E-08  0.9298E-10
    -22.922  0.6258E-08  0.1872E-09
    -22.907  0.1232E-07  0.3727E-09
    -22.892  0.2399E-07  0.7339E-09
    -22.877  0.4619E-07  0.1429E-08
    -22.862  0.8791E-07  0.2753E-08
    -22.847  0.1655E-06  0.5243E-08
    -22.832  0.3079E-06  0.9878E-08
    -22.817  0.5664E-06  0.1841E-07
    -22.802  0.1030E-05  0.3392E-07
    -22.787  0.1853E-05  0.6182E-07
    -22.772  0.3296E-05  0.1114E-06
    -22.757  0.5796E-05  0.1987E-06
    -22.742  0.1008E-04  0.3504E-06
    -22.727  0.1732E-04  0.6111E-06
    -22.712  0.2944E-04  0.1054E-05
    -22.697  0.4947E-04  0.1799E-05
    -22.681  0.8221E-04  0.3037E-05
    -22.666  0.1351E-03  0.5070E-05
    -22.651  0.2194E-03  0.8373E-05
    -22.636  0.3524E-03  0.1368E-04
    -22.621  0.5596E-03  0.2210E-04
    -22.606  0.8786E-03  0.3533E-04
    -22.591  0.1364E-02  0.5586E-04
    -22.576  0.2094E-02  0.8739E-04
    -22.561  0.3178E-02  0.1352E-03
    -22.546  0.4769E-02  0.2070E-03
    -22.531  0.7076E-02  0.3136E-03
    -22.516  0.1038E-01  0.4698E-03
    -22.501  0.1506E-01  0.6965E-03
    -22.486  0.2160E-01  0.1022E-02
    -22.471  0.3063E-01  0.1483E-02
    -22.456  0.4294E-01  0.2129E-02
    -22.441  0.5953E-01  0.3025E-02
    -22.426  0.8160E-01  0.4254E-02
    -22.411  0.1106E+00  0.5919E-02
    -22.395  0.1482E+00  0.8150E-02
    -22.380  0.1964E+00  0.1111E-01
    -22.365  0.2572E+00  0.1498E-01
    -22.350  0.3332E+00  0.1999E-01
    -22.335  0.4267E+00  0.2642E-01
    -22.320  0.5404E+00  0.3455E-01
    -22.305  0.6766E+00  0.4474E-01
    -22.290  0.8375E+00  0.5735E-01
    -22.275  0.1025E+01  0.7278E-01
    -22.260  0.1241E+01  0.9146E-01
    -22.245  0.1485E+01  0.1138E+00
    -22.230  0.1756E+01  0.1402E+00
    -22.215  0.2055E+01  0.1712E+00
    -22.200  0.2377E+01  0.2070E+00
    -22.185  0.2718E+01  0.2479E+00
    -22.170  0.3073E+01  0.2941E+00
    -22.155  0.3436E+01  0.3459E+00
    -22.140  0.3798E+01  0.4031E+00
    -22.124  0.4152E+01  0.4656E+00
    -22.109  0.4487E+01  0.5331E+00
    -22.094  0.4794E+01  0.6053E+00
    -22.079  0.5065E+01  0.6815E+00
    -22.064  0.5291E+01  0.7612E+00
    -22.049  0.5465E+01  0.8434E+00
    -22.034  0.5581E+01  0.9275E+00
    -22.019  0.5635E+01  0.1012E+01
    -22.004  0.5626E+01  0.1097E+01
    -21.989  0.5554E+01  0.1181E+01
    -21.974  0.5420E+01  0.1262E+01
    -21.959  0.5231E+01  0.1341E+01
    -21.944  0.4991E+01  0.1416E+01
    -21.929  0.4709E+01  0.1487E+01
    -21.914  0.4392E+01  0.1553E+01
    -21.899  0.4051E+01  0.1614E+01
    -21.884  0.3694E+01  0.1670E+01
    -21.869  0.3331E+01  0.1720E+01
    -21.854  0.2969E+01  0.1765E+01
    -21.838  0.2617E+01  0.1804E+01
    -21.823  0.2281E+01  0.1838E+01
    -21.808  0.1966E+01  0.1868E+01
    -21.793  0.1675E+01  0.1893E+01
    -21.778  0.1411E+01  0.1914E+01
    -21.763  0.1175E+01  0.1932E+01
    -21.748  0.9680E+00  0.1947E+01
    -21.733  0.7883E+00  0.1958E+01
    -21.718  0.6347E+00  0.1968E+01
    -21.703  0.5053E+00  0.1976E+01
    -21.688  0.3978E+00  0.1982E+01
    -21.673  0.3096E+00  0.1986E+01
    -21.658  0.2384E+00  0.1990E+01
    -21.643  0.1816E+00  0.1993E+01
    -21.628  0.1369E+00  0.1995E+01
    -21.613  0.1023E+00  0.1996E+01
    -21.598  0.7593E-01  0.1997E+01
    -21.583  0.5632E-01  0.1998E+01
    -21.567  0.4218E-01  0.1999E+01
    -21.552  0.3251E-01  0.1999E+01
    -21.537  0.2662E-01  0.2000E+01
    -21.522  0.2403E-01  0.2000E+01
    -21.507  0.2456E-01  0.2000E+01
    -21.492  0.2825E-01  0.2001E+01
    -21.477  0.3544E-01  0.2001E+01
    -21.462  0.4669E-01  0.2002E+01
    -21.447  0.6288E-01  0.2003E+01
    -21.432  0.8518E-01  0.2004E+01
    -21.417  0.1151E+00  0.2006E+01
    -21.402  0.1544E+00  0.2008E+01
    -21.387  0.2053E+00  0.2011E+01
    -21.372  0.2704E+00  0.2016E+01
    -21.357  0.3524E+00  0.2021E+01
    -21.342  0.4546E+00  0.2028E+01
    -21.327  0.5804E+00  0.2036E+01
    -21.312  0.7333E+00  0.2047E+01
    -21.297  0.9172E+00  0.2061E+01
    -21.281  0.1136E+01  0.2078E+01
    -21.266  0.1392E+01  0.2099E+01
    -21.251  0.1690E+01  0.2125E+01
    -21.236  0.2031E+01  0.2155E+01
    -21.221  0.2419E+01  0.2192E+01
    -21.206  0.2854E+01  0.2235E+01
    -21.191  0.3336E+01  0.2285E+01
    -21.176  0.3866E+01  0.2343E+01
    -21.161  0.4442E+01  0.2410E+01
    -21.146  0.5061E+01  0.2486E+01
    -21.131  0.5721E+01  0.2572E+01
    -21.116  0.6416E+01  0.2669E+01
    -21.101  0.7144E+01  0.2776E+01
    -21.086  0.7897E+01  0.2895E+01
    -21.071  0.8672E+01  0.3026E+01
    -21.056  0.9462E+01  0.3168E+01
    -21.041  0.1026E+02  0.3323E+01
    -21.026  0.1107E+02  0.3489E+01
    -21.010  0.1187E+02  0.3668E+01
    -20.995  0.1267E+02  0.3859E+01
    -20.980  0.1346E+02  0.4061E+01
    -20.965  0.1424E+02  0.4276E+01
    -20.950  0.1500E+02  0.4501E+01
    -20.935  0.1574E+02  0.4738E+01
    -20.920  0.1646E+02  0.4986E+01
    -20.905  0.1717E+02  0.5245E+01
    -20.890  0.1785E+02  0.5513E+01
    -20.875  0.1850E+02  0.5792E+01
    -20.860  0.1914E+02  0.6080E+01
    -20.845  0.1975E+02  0.6377E+01
    -20.830  0.2035E+02  0.6684E+01
    -20.815  0.2092E+02  0.6999E+01
    -20.800  0.2148E+02  0.7322E+01
    -20.785  0.2202E+02  0.7653E+01
    -20.770  0.2254E+02  0.7993E+01
    -20.755  0.2306E+02  0.8340E+01
    -20.740  0.2356E+02  0.8694E+01
    -20.724  0.2405E+02  0.9056E+01
    -20.709  0.2452E+02  0.9426E+01
    -20.694  0.2498E+02  0.9802E+01
    -20.679  0.2542E+02  0.1018E+02
    -20.664  0.2585E+02  0.1057E+02
    -20.649  0.2625E+02  0.1097E+02
    -20.634  0.2662E+02  0.1137E+02
    -20.619  0.2697E+02  0.1178E+02
    -20.604  0.2728E+02  0.1219E+02
    -20.589  0.2755E+02  0.1260E+02
    -20.574  0.2779E+02  0.1302E+02
    -20.559  0.2799E+02  0.1344E+02
    -20.544  0.2815E+02  0.1386E+02
    -20.529  0.2828E+02  0.1429E+02
    -20.514  0.2837E+02  0.1472E+02
    -20.499  0.2844E+02  0.1515E+02
    -20.484  0.2848E+02  0.1557E+02
    -20.469  0.2851E+02  0.1600E+02
    -20.453  0.2853E+02  0.1643E+02
    -20.438  0.2854E+02  0.1686E+02
    -20.423  0.2854E+02  0.1729E+02
    -20.408  0.2855E+02  0.1772E+02
    -20.393  0.2857E+02  0.1815E+02
    -20.378  0.2859E+02  0.1858E+02
    -20.363  0.2863E+02  0.1901E+02
    -20.348  0.2867E+02  0.1944E+02
    -20.333  0.2871E+02  0.1988E+02
    -20.318  0.2877E+02  0.2031E+02
    -20.303  0.2882E+02  0.2074E+02
    -20.288  0.2888E+02  0.2118E+02
    -20.273  0.2893E+02  0.2161E+02
    -20.258  0.2898E+02  0.2205E+02
    -20.243  0.2901E+02  0.2249E+02
    -20.228  0.2904E+02  0.2292E+02
    -20.213  0.2906E+02  0.2336E+02
    -20.198  0.2907E+02  0.2380E+02
    -20.183  0.2907E+02  0.2424E+02
    -20.167  0.2906E+02  0.2467E+02
    -20.152  0.2904E+02  0.2511E+02
    -20.137  0.2901E+02  0.2555E+02
    -20.122  0.2898E+02  0.2598E+02
    -20.107  0.2894E+02  0.2642E+02
    -20.092  0.2890E+02  0.2686E+02
    -20.077  0.2887E+02  0.2729E+02
    -20.062  0.2884E+02  0.2772E+02
    -20.047  0.2881E+02  0.2816E+02
    -20.032  0.2879E+02  0.2859E+02
    -20.017  0.2878E+02  0.2902E+02
    -20.002  0.2878E+02  0.2946E+02
    -19.987  0.2879E+02  0.2989E+02
    -19.972  0.2882E+02  0.3033E+02
    -19.957  0.2885E+02  0.3076E+02
    -19.942  0.2890E+02  0.3119E+02
    -19.927  0.2895E+02  0.3163E+02
    -19.912  0.2902E+02  0.3207E+02
    -19.896  0.2909E+02  0.3251E+02
    -19.881  0.2916E+02  0.3294E+02
    -19.866  0.2924E+02  0.3338E+02
    -19.851  0.2932E+02  0.3383E+02
    -19.836  0.2939E+02  0.3427E+02
    -19.821  0.2946E+02  0.3471E+02
    -19.806  0.2952E+02  0.3516E+02
    -19.791  0.2957E+02  0.3560E+02
    -19.776  0.2961E+02  0.3605E+02
    -19.761  0.2964E+02  0.3649E+02
    -19.746  0.2965E+02  0.3694E+02
    -19.731  0.2964E+02  0.3739E+02
    -19.716  0.2962E+02  0.3783E+02
    -19.701  0.2958E+02  0.3828E+02
    -19.686  0.2952E+02  0.3872E+02
    -19.671  0.2945E+02  0.3916E+02
    -19.656  0.2936E+02  0.3961E+02
    -19.641  0.2926E+02  0.4005E+02
    -19.626  0.2915E+02  0.4049E+02
    -19.610  0.2903E+02  0.4092E+02
    -19.595  0.2891E+02  0.4136E+02
    -19.580  0.2880E+02  0.4179E+02
    -19.565  0.2868E+02  0.4222E+02
    -19.550  0.2858E+02  0.4265E+02
    -19.535  0.2848E+02  0.4308E+02
    -19.520  0.2841E+02  0.4351E+02
    -19.505  0.2836E+02  0.4394E+02
    -19.490  0.2833E+02  0.4436E+02
    -19.475  0.2832E+02  0.4479E+02
    -19.460  0.2834E+02  0.4522E+02
    -19.445  0.2838E+02  0.4564E+02
    -19.430  0.2845E+02  0.4607E+02
    -19.415  0.2854E+02  0.4650E+02
    -19.400  0.2865E+02  0.4693E+02
    -19.385  0.2878E+02  0.4737E+02
    -19.370  0.2891E+02  0.4780E+02
    -19.355  0.2905E+02  0.4824E+02
    -19.339  0.2919E+02  0.4868E+02
    -19.324  0.2931E+02  0.4912E+02
    -19.309  0.2943E+02  0.4956E+02
    -19.294  0.2953E+02  0.5001E+02
    -19.279  0.2960E+02  0.5045E+02
    -19.264  0.2965E+02  0.5090E+02
    -19.249  0.2966E+02  0.5135E+02
    -19.234  0.2965E+02  0.5179E+02
    -19.219  0.2961E+02  0.5224E+02
    -19.204  0.2954E+02  0.5268E+02
    -19.189  0.2944E+02  0.5313E+02
    -19.174  0.2932E+02  0.5357E+02
    -19.159  0.2918E+02  0.5401E+02
    -19.144  0.2903E+02  0.5444E+02
    -19.129  0.2888E+02  0.5488E+02
    -19.114  0.2874E+02  0.5531E+02
    -19.099  0.2860E+02  0.5574E+02
    -19.084  0.2847E+02  0.5617E+02
    -19.069  0.2838E+02  0.5660E+02
    -19.053  0.2830E+02  0.5702E+02
    -19.038  0.2826E+02  0.5745E+02
    -19.023  0.2826E+02  0.5787E+02
    -19.008  0.2829E+02  0.5830E+02
    -18.993  0.2836E+02  0.5873E+02
    -18.978  0.2847E+02  0.5916E+02
    -18.963  0.2860E+02  0.5959E+02
    -18.948  0.2877E+02  0.6002E+02
    -18.933  0.2895E+02  0.6045E+02
    -18.918  0.2915E+02  0.6089E+02
    -18.903  0.2936E+02  0.6134E+02
    -18.888  0.2958E+02  0.6178E+02
    -18.873  0.2978E+02  0.6223E+02
    -18.858  0.2998E+02  0.6268E+02
    -18.843  0.3015E+02  0.6313E+02
    -18.828  0.3030E+02  0.6359E+02
    -18.813  0.3042E+02  0.6405E+02
    -18.798  0.3051E+02  0.6451E+02
    -18.782  0.3056E+02  0.6497E+02
    -18.767  0.3058E+02  0.6543E+02
    -18.752  0.3056E+02  0.6589E+02
    -18.737  0.3052E+02  0.6635E+02
    -18.722  0.3045E+02  0.6681E+02
    -18.707  0.3036E+02  0.6726E+02
    -18.692  0.3025E+02  0.6772E+02
    -18.677  0.3014E+02  0.6817E+02
    -18.662  0.3002E+02  0.6862E+02
    -18.647  0.2991E+02  0.6907E+02
    -18.632  0.2982E+02  0.6952E+02
    -18.617  0.2974E+02  0.6997E+02
    -18.602  0.2968E+02  0.7042E+02
    -18.587  0.2965E+02  0.7086E+02
    -18.572  0.2965E+02  0.7131E+02
    -18.557  0.2967E+02  0.7176E+02
    -18.542  0.2973E+02  0.7221E+02
    -18.527  0.2981E+02  0.7265E+02
    -18.511  0.2992E+02  0.7310E+02
    -18.496  0.3005E+02  0.7356E+02
    -18.481  0.3018E+02  0.7401E+02
    -18.466  0.3033E+02  0.7447E+02
    -18.451  0.3048E+02  0.7493E+02
    -18.436  0.3062E+02  0.7539E+02
    -18.421  0.3074E+02  0.7585E+02
    -18.406  0.3085E+02  0.7631E+02
    -18.391  0.3094E+02  0.7678E+02
    -18.376  0.3100E+02  0.7725E+02
    -18.361  0.3104E+02  0.7771E+02
    -18.346  0.3104E+02  0.7818E+02
    -18.331  0.3102E+02  0.7865E+02
    -18.316  0.3097E+02  0.7911E+02
    -18.301  0.3091E+02  0.7958E+02
    -18.286  0.3082E+02  0.8004E+02
    -18.271  0.3072E+02  0.8051E+02
    -18.256  0.3062E+02  0.8097E+02
    -18.241  0.3051E+02  0.8143E+02
    -18.225  0.3040E+02  0.8188E+02
    -18.210  0.3029E+02  0.8234E+02
    -18.195  0.3019E+02  0.8279E+02
    -18.180  0.3009E+02  0.8325E+02
    -18.165  0.3000E+02  0.8370E+02
    -18.150  0.2993E+02  0.8415E+02
    -18.135  0.2986E+02  0.8460E+02
    -18.120  0.2980E+02  0.8505E+02
    -18.105  0.2975E+02  0.8550E+02
    -18.090  0.2970E+02  0.8594E+02
    -18.075  0.2966E+02  0.8639E+02
    -18.060  0.2964E+02  0.8684E+02
    -18.045  0.2962E+02  0.8728E+02
    -18.030  0.2961E+02  0.8773E+02
    -18.015  0.2961E+02  0.8817E+02
    -18.000  0.2962E+02  0.8862E+02
    -17.985  0.2965E+02  0.8906E+02
    -17.970  0.2969E+02  0.8951E+02
    -17.954  0.2975E+02  0.8996E+02
    -17.939  0.2982E+02  0.9041E+02
    -17.924  0.2990E+02  0.9086E+02
    -17.909  0.3000E+02  0.9131E+02
    -17.894  0.3010E+02  0.9176E+02
    -17.879  0.3021E+02  0.9222E+02
    -17.864  0.3032E+02  0.9267E+02
    -17.849  0.3043E+02  0.9313E+02
    -17.834  0.3053E+02  0.9359E+02
    -17.819  0.3062E+02  0.9405E+02
    -17.804  0.3069E+02  0.9452E+02
    -17.789  0.3074E+02  0.9498E+02
    -17.774  0.3077E+02  0.9544E+02
    -17.759  0.3078E+02  0.9591E+02
    -17.744  0.3076E+02  0.9637E+02
    -17.729  0.3072E+02  0.9683E+02
    -17.714  0.3066E+02  0.9729E+02
    -17.699  0.3057E+02  0.9775E+02
    -17.684  0.3047E+02  0.9821E+02
    -17.668  0.3036E+02  0.9867E+02
    -17.653  0.3024E+02  0.9912E+02
    -17.638  0.3011E+02  0.9958E+02
    -17.623  0.2998E+02  0.1000E+03
    -17.608  0.2987E+02  0.1005E+03
    -17.593  0.2976E+02  0.1009E+03
    -17.578  0.2967E+02  0.1014E+03
    -17.563  0.2960E+02  0.1018E+03
    -17.548  0.2955E+02  0.1023E+03
    -17.533  0.2953E+02  0.1027E+03
    -17.518  0.2955E+02  0.1032E+03
    -17.503  0.2958E+02  0.1036E+03
    -17.488  0.2965E+02  0.1040E+03
    -17.473  0.2975E+02  0.1045E+03
    -17.458  0.2987E+02  0.1049E+03
    -17.443  0.3001E+02  0.1054E+03
    -17.428  0.3017E+02  0.1058E+03
    -17.413  0.3034E+02  0.1063E+03
    -17.397  0.3051E+02  0.1068E+03
    -17.382  0.3069E+02  0.1072E+03
    -17.367  0.3086E+02  0.1077E+03
    -17.352  0.3102E+02  0.1082E+03
    -17.337  0.3116E+02  0.1086E+03
    -17.322  0.3129E+02  0.1091E+03
    -17.307  0.3140E+02  0.1096E+03
    -17.292  0.3149E+02  0.1100E+03
    -17.277  0.3156E+02  0.1105E+03
    -17.262  0.3161E+02  0.1110E+03
    -17.247  0.3164E+02  0.1115E+03
    -17.232  0.3166E+02  0.1119E+03
    -17.217  0.3167E+02  0.1124E+03
    -17.202  0.3166E+02  0.1129E+03
    -17.187  0.3165E+02  0.1134E+03
    -17.172  0.3163E+02  0.1139E+03
    -17.157  0.3160E+02  0.1143E+03
    -17.142  0.3157E+02  0.1148E+03
    -17.127  0.3153E+02  0.1153E+03
    -17.111  0.3148E+02  0.1158E+03
    -17.096  0.3143E+02  0.1162E+03
    -17.081  0.3137E+02  0.1167E+03
    -17.066  0.3129E+02  0.1172E+03
    -17.051  0.3121E+02  0.1176E+03
    -17.036  0.3111E+02  0.1181E+03
    -17.021  0.3101E+02  0.1186E+03
    -17.006  0.3089E+02  0.1190E+03
    -16.991  0.3077E+02  0.1195E+03
    -16.976  0.3065E+02  0.1200E+03
    -16.961  0.3052E+02  0.1204E+03
    -16.946  0.3039E+02  0.1209E+03
    -16.931  0.3026E+02  0.1213E+03
    -16.916  0.3014E+02  0.1218E+03
    -16.901  0.3003E+02  0.1222E+03
    -16.886  0.2994E+02  0.1227E+03
    -16.871  0.2986E+02  0.1231E+03
    -16.856  0.2980E+02  0.1236E+03
    -16.840  0.2977E+02  0.1240E+03
    -16.825  0.2976E+02  0.1245E+03
    -16.810  0.2977E+02  0.1249E+03
    -16.795  0.2982E+02  0.1254E+03
    -16.780  0.2989E+02  0.1258E+03
    -16.765  0.2998E+02  0.1263E+03
    -16.750  0.3010E+02  0.1267E+03
    -16.735  0.3025E+02  0.1272E+03
    -16.720  0.3041E+02  0.1277E+03
    -16.705  0.3060E+02  0.1281E+03
    -16.690  0.3080E+02  0.1286E+03
    -16.675  0.3100E+02  0.1290E+03
    -16.660  0.3122E+02  0.1295E+03
    -16.645  0.3144E+02  0.1300E+03
    -16.630  0.3165E+02  0.1305E+03
    -16.615  0.3187E+02  0.1309E+03
    -16.600  0.3207E+02  0.1314E+03
    -16.585  0.3226E+02  0.1319E+03
    -16.570  0.3244E+02  0.1324E+03
    -16.554  0.3260E+02  0.1329E+03
    -16.539  0.3274E+02  0.1334E+03
    -16.524  0.3287E+02  0.1339E+03
    -16.509  0.3297E+02  0.1344E+03
    -16.494  0.3304E+02  0.1349E+03
    -16.479  0.3310E+02  0.1354E+03
    -16.464  0.3313E+02  0.1359E+03
    -16.449  0.3314E+02  0.1364E+03
    -16.434  0.3313E+02  0.1369E+03
    -16.419  0.3310E+02  0.1374E+03
    -16.404  0.3305E+02  0.1379E+03
    -16.389  0.3298E+02  0.1384E+03
    -16.374  0.3290E+02  0.1389E+03
    -16.359  0.3281E+02  0.1393E+03
    -16.344  0.3270E+02  0.1398E+03
    -16.329  0.3258E+02  0.1403E+03
    -16.314  0.3246E+02  0.1408E+03
    -16.299  0.3233E+02  0.1413E+03
    -16.283  0.3221E+02  0.1418E+03
    -16.268  0.3208E+02  0.1423E+03
    -16.253  0.3196E+02  0.1428E+03
    -16.238  0.3184E+02  0.1432E+03
    -16.223  0.3174E+02  0.1437E+03
    -16.208  0.3165E+02  0.1442E+03
    -16.193  0.3158E+02  0.1447E+03
    -16.178  0.3154E+02  0.1451E+03
    -16.163  0.3152E+02  0.1456E+03
    -16.148  0.3153E+02  0.1461E+03
    -16.133  0.3158E+02  0.1466E+03
    -16.118  0.3166E+02  0.1470E+03
    -16.103  0.3178E+02  0.1475E+03
    -16.088  0.3194E+02  0.1480E+03
    -16.073  0.3213E+02  0.1485E+03
    -16.058  0.3235E+02  0.1490E+03
    -16.043  0.3260E+02  0.1495E+03
    -16.028  0.3287E+02  0.1500E+03
    -16.013  0.3316E+02  0.1505E+03
    -15.997  0.3346E+02  0.1510E+03
    -15.982  0.3376E+02  0.1515E+03
    -15.967  0.3406E+02  0.1520E+03
    -15.952  0.3435E+02  0.1525E+03
    -15.937  0.3462E+02  0.1530E+03
    -15.922  0.3487E+02  0.1535E+03
    -15.907  0.3510E+02  0.1541E+03
    -15.892  0.3531E+02  0.1546E+03
    -15.877  0.3548E+02  0.1551E+03
    -15.862  0.3562E+02  0.1557E+03
    -15.847  0.3574E+02  0.1562E+03
    -15.832  0.3582E+02  0.1568E+03
    -15.817  0.3588E+02  0.1573E+03
    -15.802  0.3591E+02  0.1578E+03
    -15.787  0.3590E+02  0.1584E+03
    -15.772  0.3587E+02  0.1589E+03
    -15.757  0.3581E+02  0.1595E+03
    -15.742  0.3573E+02  0.1600E+03
    -15.726  0.3561E+02  0.1605E+03
    -15.711  0.3546E+02  0.1611E+03
    -15.696  0.3527E+02  0.1616E+03
    -15.681  0.3506E+02  0.1621E+03
    -15.666  0.3481E+02  0.1626E+03
    -15.651  0.3453E+02  0.1632E+03
    -15.636  0.3421E+02  0.1637E+03
    -15.621  0.3386E+02  0.1642E+03
    -15.606  0.3349E+02  0.1647E+03
    -15.591  0.3309E+02  0.1652E+03
    -15.576  0.3266E+02  0.1657E+03
    -15.561  0.3221E+02  0.1662E+03
    -15.546  0.3175E+02  0.1666E+03
    -15.531  0.3127E+02  0.1671E+03
    -15.516  0.3078E+02  0.1676E+03
    -15.501  0.3029E+02  0.1680E+03
    -15.486  0.2979E+02  0.1685E+03
    -15.471  0.2929E+02  0.1689E+03
    -15.456  0.2878E+02  0.1694E+03
    -15.440  0.2828E+02  0.1698E+03
    -15.425  0.2779E+02  0.1702E+03
    -15.410  0.2730E+02  0.1706E+03
    -15.395  0.2681E+02  0.1710E+03
    -15.380  0.2633E+02  0.1714E+03
    -15.365  0.2587E+02  0.1718E+03
    -15.350  0.2541E+02  0.1722E+03
    -15.335  0.2497E+02  0.1726E+03
    -15.320  0.2455E+02  0.1729E+03
    -15.305  0.2415E+02  0.1733E+03
    -15.290  0.2377E+02  0.1736E+03
    -15.275  0.2341E+02  0.1740E+03
    -15.260  0.2309E+02  0.1743E+03
    -15.245  0.2278E+02  0.1747E+03
    -15.230  0.2251E+02  0.1750E+03
    -15.215  0.2227E+02  0.1754E+03
    -15.200  0.2205E+02  0.1757E+03
    -15.185  0.2185E+02  0.1760E+03
    -15.169  0.2169E+02  0.1764E+03
    -15.154  0.2154E+02  0.1767E+03
    -15.139  0.2141E+02  0.1770E+03
    -15.124  0.2131E+02  0.1773E+03
    -15.109  0.2122E+02  0.1776E+03
    -15.094  0.2115E+02  0.1780E+03
    -15.079  0.2109E+02  0.1783E+03
    -15.064  0.2106E+02  0.1786E+03
    -15.049  0.2104E+02  0.1789E+03
    -15.034  0.2105E+02  0.1792E+03
    -15.019  0.2108E+02  0.1795E+03
    -15.004  0.2113E+02  0.1799E+03
    -14.989  0.2122E+02  0.1802E+03
    -14.974  0.2134E+02  0.1805E+03
    -14.959  0.2149E+02  0.1808E+03
    -14.944  0.2167E+02  0.1812E+03
    -14.929  0.2189E+02  0.1815E+03
    -14.914  0.2214E+02  0.1818E+03
    -14.899  0.2243E+02  0.1822E+03
    -14.883  0.2275E+02  0.1825E+03
    -14.868  0.2309E+02  0.1828E+03
    -14.853  0.2346E+02  0.1832E+03
    -14.838  0.2384E+02  0.1836E+03
    -14.823  0.2424E+02  0.1839E+03
    -14.808  0.2463E+02  0.1843E+03
    -14.793  0.2503E+02  0.1847E+03
    -14.778  0.2541E+02  0.1851E+03
    -14.763  0.2578E+02  0.1854E+03
    -14.748  0.2613E+02  0.1858E+03
    -14.733  0.2644E+02  0.1862E+03
    -14.718  0.2673E+02  0.1866E+03
    -14.703  0.2697E+02  0.1870E+03
    -14.688  0.2718E+02  0.1874E+03
    -14.673  0.2734E+02  0.1879E+03
    -14.658  0.2747E+02  0.1883E+03
    -14.643  0.2755E+02  0.1887E+03
    -14.628  0.2760E+02  0.1891E+03
    -14.612  0.2761E+02  0.1895E+03
    -14.597  0.2759E+02  0.1899E+03
    -14.582  0.2755E+02  0.1903E+03
    -14.567  0.2749E+02  0.1908E+03
    -14.552  0.2741E+02  0.1912E+03
    -14.537  0.2734E+02  0.1916E+03
    -14.522  0.2726E+02  0.1920E+03
    -14.507  0.2719E+02  0.1924E+03
    -14.492  0.2714E+02  0.1928E+03
    -14.477  0.2710E+02  0.1932E+03
    -14.462  0.2709E+02  0.1936E+03
    -14.447  0.2710E+02  0.1940E+03
    -14.432  0.2714E+02  0.1944E+03
    -14.417  0.2721E+02  0.1949E+03
    -14.402  0.2731E+02  0.1953E+03
    -14.387  0.2744E+02  0.1957E+03
    -14.372  0.2759E+02  0.1961E+03
    -14.357  0.2777E+02  0.1965E+03
    -14.342  0.2798E+02  0.1969E+03
    -14.326  0.2821E+02  0.1974E+03
    -14.311  0.2846E+02  0.1978E+03
    -14.296  0.2873E+02  0.1982E+03
    -14.281  0.2901E+02  0.1987E+03
    -14.266  0.2931E+02  0.1991E+03
    -14.251  0.2962E+02  0.1995E+03
    -14.236  0.2994E+02  0.2000E+03
    -14.221  0.3027E+02  0.2005E+03
    -14.206  0.3060E+02  0.2009E+03
    -14.191  0.3094E+02  0.2014E+03
    -14.176  0.3128E+02  0.2018E+03
    -14.161  0.3162E+02  0.2023E+03
    -14.146  0.3196E+02  0.2028E+03
    -14.131  0.3229E+02  0.2033E+03
    -14.116  0.3261E+02  0.2038E+03
    -14.101  0.3291E+02  0.2043E+03
    -14.086  0.3319E+02  0.2048E+03
    -14.071  0.3345E+02  0.2053E+03
    -14.055  0.3369E+02  0.2058E+03
    -14.040  0.3389E+02  0.2063E+03
    -14.025  0.3407E+02  0.2068E+03
    -14.010  0.3421E+02  0.2073E+03
    -13.995  0.3432E+02  0.2078E+03
    -13.980  0.3440E+02  0.2084E+03
    -13.965  0.3444E+02  0.2089E+03
    -13.950  0.3446E+02  0.2094E+03
    -13.935  0.3446E+02  0.2099E+03
    -13.920  0.3444E+02  0.2104E+03
    -13.905  0.3440E+02  0.2110E+03
    -13.890  0.3437E+02  0.2115E+03
    -13.875  0.3433E+02  0.2120E+03
    -13.860  0.3431E+02  0.2125E+03
    -13.845  0.3430E+02  0.2130E+03
    -13.830  0.3431E+02  0.2135E+03
    -13.815  0.3435E+02  0.2141E+03
    -13.800  0.3442E+02  0.2146E+03
    -13.785  0.3453E+02  0.2151E+03
    -13.769  0.3466E+02  0.2156E+03
    -13.754  0.3482E+02  0.2161E+03
    -13.739  0.3501E+02  0.2167E+03
    -13.724  0.3522E+02  0.2172E+03
    -13.709  0.3545E+02  0.2177E+03
    -13.694  0.3569E+02  0.2183E+03
    -13.679  0.3594E+02  0.2188E+03
    -13.664  0.3617E+02  0.2194E+03
    -13.649  0.3640E+02  0.2199E+03
    -13.634  0.3660E+02  0.2205E+03
    -13.619  0.3677E+02  0.2210E+03
    -13.604  0.3692E+02  0.2216E+03
    -13.589  0.3702E+02  0.2221E+03
    -13.574  0.3709E+02  0.2227E+03
    -13.559  0.3711E+02  0.2232E+03
    -13.544  0.3710E+02  0.2238E+03
    -13.529  0.3704E+02  0.2244E+03
    -13.514  0.3695E+02  0.2249E+03
    -13.498  0.3682E+02  0.2255E+03
    -13.483  0.3666E+02  0.2260E+03
    -13.468  0.3647E+02  0.2266E+03
    -13.453  0.3627E+02  0.2271E+03
    -13.438  0.3605E+02  0.2277E+03
    -13.423  0.3583E+02  0.2282E+03
    -13.408  0.3560E+02  0.2287E+03
    -13.393  0.3537E+02  0.2293E+03
    -13.378  0.3515E+02  0.2298E+03
    -13.363  0.3494E+02  0.2303E+03
    -13.348  0.3475E+02  0.2308E+03
    -13.333  0.3456E+02  0.2314E+03
    -13.318  0.3440E+02  0.2319E+03
    -13.303  0.3425E+02  0.2324E+03
    -13.288  0.3412E+02  0.2329E+03
    -13.273  0.3400E+02  0.2334E+03
    -13.258  0.3390E+02  0.2339E+03
    -13.243  0.3381E+02  0.2344E+03
    -13.228  0.3373E+02  0.2349E+03
    -13.212  0.3366E+02  0.2355E+03
    -13.197  0.3358E+02  0.2360E+03
    -13.182  0.3350E+02  0.2365E+03
    -13.167  0.3341E+02  0.2370E+03
    -13.152  0.3331E+02  0.2375E+03
    -13.137  0.3319E+02  0.2380E+03
    -13.122  0.3305E+02  0.2385E+03
    -13.107  0.3289E+02  0.2390E+03
    -13.092  0.3270E+02  0.2394E+03
    -13.077  0.3249E+02  0.2399E+03
    -13.062  0.3225E+02  0.2404E+03
    -13.047  0.3199E+02  0.2409E+03
    -13.032  0.3170E+02  0.2414E+03
    -13.017  0.3140E+02  0.2419E+03
    -13.002  0.3109E+02  0.2423E+03
    -12.987  0.3077E+02  0.2428E+03
    -12.972  0.3044E+02  0.2432E+03
    -12.957  0.3013E+02  0.2437E+03
    -12.941  0.2982E+02  0.2441E+03
    -12.926  0.2954E+02  0.2446E+03
    -12.911  0.2928E+02  0.2450E+03
    -12.896  0.2905E+02  0.2455E+03
    -12.881  0.2886E+02  0.2459E+03
    -12.866  0.2871E+02  0.2463E+03
    -12.851  0.2860E+02  0.2468E+03
    -12.836  0.2853E+02  0.2472E+03
    -12.821  0.2852E+02  0.2476E+03
    -12.806  0.2854E+02  0.2481E+03
    -12.791  0.2861E+02  0.2485E+03
    -12.776  0.2872E+02  0.2489E+03
    -12.761  0.2887E+02  0.2494E+03
    -12.746  0.2904E+02  0.2498E+03
    -12.731  0.2924E+02  0.2502E+03
    -12.716  0.2946E+02  0.2507E+03
    -12.701  0.2968E+02  0.2511E+03
    -12.686  0.2990E+02  0.2516E+03
    -12.671  0.3011E+02  0.2520E+03
    -12.655  0.3031E+02  0.2525E+03
    -12.640  0.3048E+02  0.2529E+03
    -12.625  0.3062E+02  0.2534E+03
    -12.610  0.3073E+02  0.2539E+03
    -12.595  0.3080E+02  0.2543E+03
    -12.580  0.3082E+02  0.2548E+03
    -12.565  0.3080E+02  0.2553E+03
    -12.550  0.3074E+02  0.2557E+03
    -12.535  0.3063E+02  0.2562E+03
    -12.520  0.3048E+02  0.2566E+03
    -12.505  0.3029E+02  0.2571E+03
    -12.490  0.3007E+02  0.2575E+03
    -12.475  0.2982E+02  0.2580E+03
    -12.460  0.2954E+02  0.2584E+03
    -12.445  0.2925E+02  0.2589E+03
    -12.430  0.2895E+02  0.2593E+03
    -12.415  0.2864E+02  0.2597E+03
    -12.400  0.2834E+02  0.2602E+03
    -12.384  0.2805E+02  0.2606E+03
    -12.369  0.2778E+02  0.2610E+03
    -12.354  0.2752E+02  0.2614E+03
    -12.339  0.2730E+02  0.2618E+03
    -12.324  0.2711E+02  0.2622E+03
    -12.309  0.2695E+02  0.2627E+03
    -12.294  0.2684E+02  0.2631E+03
    -12.279  0.2676E+02  0.2635E+03
    -12.264  0.2671E+02  0.2639E+03
    -12.249  0.2671E+02  0.2643E+03
    -12.234  0.2674E+02  0.2647E+03
    -12.219  0.2681E+02  0.2651E+03
    -12.204  0.2691E+02  0.2655E+03
    -12.189  0.2705E+02  0.2659E+03
    -12.174  0.2720E+02  0.2663E+03
    -12.159  0.2739E+02  0.2667E+03
    -12.144  0.2759E+02  0.2671E+03
    -12.129  0.2781E+02  0.2675E+03
    -12.114  0.2804E+02  0.2680E+03
    -12.098  0.2829E+02  0.2684E+03
    -12.083  0.2855E+02  0.2688E+03
    -12.068  0.2882E+02  0.2693E+03
    -12.053  0.2910E+02  0.2697E+03
    -12.038  0.2938E+02  0.2701E+03
    -12.023  0.2966E+02  0.2706E+03
    -12.008  0.2995E+02  0.2710E+03
    -11.993  0.3023E+02  0.2715E+03
    -11.978  0.3052E+02  0.2719E+03
    -11.963  0.3081E+02  0.2724E+03
    -11.948  0.3109E+02  0.2729E+03
    -11.933  0.3137E+02  0.2733E+03
    -11.918  0.3165E+02  0.2738E+03
    -11.903  0.3192E+02  0.2743E+03
    -11.888  0.3219E+02  0.2748E+03
    -11.873  0.3246E+02  0.2753E+03
    -11.858  0.3272E+02  0.2758E+03
    -11.843  0.3297E+02  0.2763E+03
    -11.827  0.3322E+02  0.2768E+03
    -11.812  0.3345E+02  0.2773E+03
    -11.797  0.3368E+02  0.2778E+03
    -11.782  0.3390E+02  0.2783E+03
    -11.767  0.3410E+02  0.2788E+03
    -11.752  0.3428E+02  0.2793E+03
    -11.737  0.3445E+02  0.2798E+03
    -11.722  0.3459E+02  0.2804E+03
    -11.707  0.3471E+02  0.2809E+03
    -11.692  0.3480E+02  0.2814E+03
    -11.677  0.3486E+02  0.2819E+03
    -11.662  0.3490E+02  0.2825E+03
    -11.647  0.3490E+02  0.2830E+03
    -11.632  0.3486E+02  0.2835E+03
    -11.617  0.3480E+02  0.2840E+03
    -11.602  0.3471E+02  0.2845E+03