 161 161   0   0
  0.5064642E+02  0.2460250E-08  0.1657164E-08  0.2000000E-08  0.5000000E-15
  1.000000000000000E-004
  CAR 
 unknown system                          
      3.54954596    -24.23696382 2000     -3.52620262      1.00000000
    -24.237  0.0000E+00  0.0000E+00
    -24.223  0.0000E+00  0.0000E+00
    -24.209  0.0000E+00  0.0000E+00
    -24.195  0.0000E+00  0.0000E+00
    -24.181  0.0000E+00  0.0000E+00
    -24.167  0.0000E+00  0.0000E+00
    -24.154  0.0000E+00  0.0000E+00
    -24.140  0.0000E+00  0.0000E+00
    -24.126  0.0000E+00  0.0000E+00
    -24.112  0.0000E+00  0.0000E+00
    -24.098  0.0000E+00  0.0000E+00
    -24.084  0.0000E+00  0.0000E+00
    -24.070  0.0000E+00  0.0000E+00
    -24.056  0.0000E+00  0.0000E+00
    -24.042  0.0000E+00  0.0000E+00
    -24.028  0.0000E+00  0.0000E+00
    -24.015  0.0000E+00  0.0000E+00
    -24.001  0.0000E+00  0.0000E+00
    -23.987  0.0000E+00  0.0000E+00
    -23.973  0.0000E+00  0.0000E+00
    -23.959  0.0000E+00  0.0000E+00
    -23.945  0.0000E+00  0.0000E+00
    -23.931  0.0000E+00  0.0000E+00
    -23.917  0.0000E+00  0.0000E+00
    -23.903  0.0000E+00  0.0000E+00
    -23.889  0.0000E+00  0.0000E+00
    -23.876  0.0000E+00  0.0000E+00
    -23.862  0.0000E+00  0.0000E+00
    -23.848  0.0000E+00  0.0000E+00
    -23.834  0.0000E+00  0.0000E+00
    -23.820  0.0000E+00  0.0000E+00
    -23.806  0.0000E+00  0.0000E+00
    -23.792  0.0000E+00  0.0000E+00
    -23.778  0.0000E+00  0.0000E+00
    -23.764  0.0000E+00  0.0000E+00
    -23.750  0.0000E+00  0.0000E+00
    -23.737  0.0000E+00  0.0000E+00
    -23.723  0.0000E+00  0.0000E+00
    -23.709  0.0000E+00  0.0000E+00
    -23.695  0.0000E+00  0.0000E+00
    -23.681  0.0000E+00  0.0000E+00
    -23.667  0.0000E+00  0.0000E+00
    -23.653  0.0000E+00  0.0000E+00
    -23.639  0.0000E+00  0.0000E+00
    -23.625  0.0000E+00  0.0000E+00
    -23.611  0.0000E+00  0.0000E+00
    -23.598  0.0000E+00  0.0000E+00
    -23.584  0.0000E+00  0.0000E+00
    -23.570  0.0000E+00  0.0000E+00
    -23.556  0.0000E+00  0.0000E+00
    -23.542  0.0000E+00  0.0000E+00
    -23.528  0.0000E+00  0.0000E+00
    -23.514  0.0000E+00  0.0000E+00
    -23.500  0.0000E+00  0.0000E+00
    -23.486  0.0000E+00  0.0000E+00
    -23.472  0.0000E+00  0.0000E+00
    -23.459  0.0000E+00  0.0000E+00
    -23.445  0.0000E+00  0.0000E+00
    -23.431  0.0000E+00  0.0000E+00
    -23.417  0.2662E-14  0.3701E-16
    -23.403  0.0000E+00  0.3701E-16
    -23.389  0.1065E-13  0.1850E-15
    -23.375  0.1686E-13  0.4194E-15
    -23.361  0.3994E-13  0.9745E-15
    -23.347  0.8520E-13  0.2159E-14
    -23.333  0.1881E-12  0.4774E-14
    -23.320  0.3994E-12  0.1033E-13
    -23.306  0.8564E-12  0.2223E-13
    -23.292  0.1813E-11  0.4743E-13
    -23.278  0.3805E-11  0.1003E-12
    -23.264  0.7904E-11  0.2102E-12
    -23.250  0.1625E-10  0.4360E-12
    -23.236  0.3311E-10  0.8962E-12
    -23.222  0.6680E-10  0.1825E-11
    -23.208  0.1335E-09  0.3681E-11
    -23.194  0.2644E-09  0.7356E-11
    -23.181  0.5185E-09  0.1456E-10
    -23.167  0.1007E-08  0.2856E-10
    -23.153  0.1938E-08  0.5549E-10
    -23.139  0.3693E-08  0.1068E-09
    -23.125  0.6971E-08  0.2037E-09
    -23.111  0.1303E-07  0.3849E-09
    -23.097  0.2414E-07  0.7204E-09
    -23.083  0.4429E-07  0.1336E-08
    -23.069  0.8048E-07  0.2455E-08
    -23.055  0.1449E-06  0.4468E-08
    -23.042  0.2583E-06  0.8059E-08
    -23.028  0.4562E-06  0.1440E-07
    -23.014  0.7982E-06  0.2549E-07
    -23.000  0.1383E-05  0.4472E-07
    -22.986  0.2375E-05  0.7773E-07
    -22.972  0.4038E-05  0.1339E-06
    -22.958  0.6803E-05  0.2284E-06
    -22.944  0.1135E-04  0.3862E-06
    -22.930  0.1877E-04  0.6471E-06
    -22.916  0.3073E-04  0.1074E-05
    -22.903  0.4985E-04  0.1767E-05
    -22.889  0.8012E-04  0.2881E-05
    -22.875  0.1275E-03  0.4654E-05
    -22.861  0.2012E-03  0.7450E-05
    -22.847  0.3143E-03  0.1182E-04
    -22.833  0.4865E-03  0.1858E-04
    -22.819  0.7461E-03  0.2895E-04
    -22.805  0.1134E-02  0.4471E-04
    -22.791  0.1706E-02  0.6843E-04
    -22.777  0.2544E-02  0.1038E-03
    -22.764  0.3759E-02  0.1560E-03
    -22.750  0.5503E-02  0.2325E-03
    -22.736  0.7982E-02  0.3435E-03
    -22.722  0.1147E-01  0.5029E-03
    -22.708  0.1633E-01  0.7300E-03
    -22.694  0.2304E-01  0.1050E-02
    -22.680  0.3222E-01  0.1498E-02
    -22.666  0.4463E-01  0.2118E-02
    -22.652  0.6127E-01  0.2970E-02
    -22.638  0.8334E-01  0.4129E-02
    -22.625  0.1124E+00  0.5690E-02
    -22.611  0.1501E+00  0.7777E-02
    -22.597  0.1987E+00  0.1054E-01
    -22.583  0.2608E+00  0.1416E-01
    -22.569  0.3392E+00  0.1888E-01
    -22.555  0.4373E+00  0.2496E-01
    -22.541  0.5587E+00  0.3272E-01
    -22.527  0.7077E+00  0.4256E-01
    -22.513  0.8885E+00  0.5491E-01
    -22.499  0.1106E+01  0.7028E-01
    -22.486  0.1365E+01  0.8925E-01
    -22.472  0.1670E+01  0.1125E+00
    -22.458  0.2025E+01  0.1406E+00
    -22.444  0.2436E+01  0.1745E+00
    -22.430  0.2905E+01  0.2149E+00
    -22.416  0.3437E+01  0.2626E+00
    -22.402  0.4031E+01  0.3187E+00
    -22.388  0.4691E+01  0.3839E+00
    -22.374  0.5414E+01  0.4591E+00
    -22.360  0.6198E+01  0.5453E+00
    -22.347  0.7040E+01  0.6431E+00
    -22.333  0.7934E+01  0.7534E+00
    -22.319  0.8873E+01  0.8768E+00
    -22.305  0.9847E+01  0.1014E+01
    -22.291  0.1085E+02  0.1164E+01
    -22.277  0.1186E+02  0.1329E+01
    -22.263  0.1287E+02  0.1508E+01
    -22.249  0.1387E+02  0.1701E+01
    -22.235  0.1484E+02  0.1907E+01
    -22.221  0.1578E+02  0.2127E+01
    -22.208  0.1666E+02  0.2358E+01
    -22.194  0.1747E+02  0.2601E+01
    -22.180  0.1821E+02  0.2854E+01
    -22.166  0.1886E+02  0.3116E+01
    -22.152  0.1941E+02  0.3386E+01
    -22.138  0.1987E+02  0.3662E+01
    -22.124  0.2023E+02  0.3943E+01
    -22.110  0.2048E+02  0.4228E+01
    -22.096  0.2063E+02  0.4515E+01
    -22.082  0.2069E+02  0.4802E+01
    -22.069  0.2066E+02  0.5090E+01
    -22.055  0.2054E+02  0.5375E+01
    -22.041  0.2035E+02  0.5658E+01
    -22.027  0.2009E+02  0.5937E+01
    -22.013  0.1978E+02  0.6212E+01
    -21.999  0.1943E+02  0.6482E+01
    -21.985  0.1905E+02  0.6747E+01
    -21.971  0.1865E+02  0.7006E+01
    -21.957  0.1825E+02  0.7260E+01
    -21.943  0.1785E+02  0.7508E+01
    -21.930  0.1746E+02  0.7751E+01
    -21.916  0.1710E+02  0.7989E+01
    -21.902  0.1677E+02  0.8222E+01
    -21.888  0.1648E+02  0.8451E+01
    -21.874  0.1623E+02  0.8676E+01
    -21.860  0.1604E+02  0.8899E+01
    -21.846  0.1589E+02  0.9120E+01
    -21.832  0.1580E+02  0.9340E+01
    -21.818  0.1576E+02  0.9559E+01
    -21.804  0.1577E+02  0.9778E+01
    -21.791  0.1583E+02  0.9998E+01
    -21.777  0.1595E+02  0.1022E+02
    -21.763  0.1611E+02  0.1044E+02
    -21.749  0.1631E+02  0.1067E+02
    -21.735  0.1654E+02  0.1090E+02
    -21.721  0.1681E+02  0.1113E+02
    -21.707  0.1710E+02  0.1137E+02
    -21.693  0.1740E+02  0.1161E+02
    -21.679  0.1772E+02  0.1186E+02
    -21.665  0.1804E+02  0.1211E+02
    -21.652  0.1836E+02  0.1237E+02
    -21.638  0.1868E+02  0.1263E+02
    -21.624  0.1899E+02  0.1289E+02
    -21.610  0.1928E+02  0.1316E+02
    -21.596  0.1955E+02  0.1343E+02
    -21.582  0.1980E+02  0.1370E+02
    -21.568  0.2003E+02  0.1398E+02
    -21.554  0.2024E+02  0.1426E+02
    -21.540  0.2042E+02  0.1455E+02
    -21.526  0.2058E+02  0.1483E+02
    -21.513  0.2072E+02  0.1512E+02
    -21.499  0.2085E+02  0.1541E+02
    -21.485  0.2095E+02  0.1570E+02
    -21.471  0.2104E+02  0.1600E+02
    -21.457  0.2112E+02  0.1629E+02
    -21.443  0.2119E+02  0.1658E+02
    -21.429  0.2126E+02  0.1688E+02
    -21.415  0.2133E+02  0.1718E+02
    -21.401  0.2140E+02  0.1747E+02
    -21.387  0.2147E+02  0.1777E+02
    -21.374  0.2156E+02  0.1807E+02
    -21.360  0.2165E+02  0.1837E+02
    -21.346  0.2176E+02  0.1867E+02
    -21.332  0.2188E+02  0.1898E+02
    -21.318  0.2202E+02  0.1928E+02
    -21.304  0.2217E+02  0.1959E+02
    -21.290  0.2234E+02  0.1990E+02
    -21.276  0.2252E+02  0.2022E+02
    -21.262  0.2272E+02  0.2053E+02
    -21.248  0.2293E+02  0.2085E+02
    -21.235  0.2315E+02  0.2117E+02
    -21.221  0.2337E+02  0.2150E+02
    -21.207  0.2360E+02  0.2183E+02
    -21.193  0.2382E+02  0.2216E+02
    -21.179  0.2404E+02  0.2249E+02
    -21.165  0.2424E+02  0.2283E+02
    -21.151  0.2443E+02  0.2317E+02
    -21.137  0.2461E+02  0.2351E+02
    -21.123  0.2476E+02  0.2385E+02
    -21.109  0.2490E+02  0.2420E+02
    -21.096  0.2501E+02  0.2455E+02
    -21.082  0.2511E+02  0.2490E+02
    -21.068  0.2518E+02  0.2525E+02
    -21.054  0.2524E+02  0.2560E+02
    -21.040  0.2529E+02  0.2595E+02
    -21.026  0.2533E+02  0.2630E+02
    -21.012  0.2536E+02  0.2665E+02
    -20.998  0.2538E+02  0.2701E+02
    -20.984  0.2541E+02  0.2736E+02
    -20.970  0.2545E+02  0.2771E+02
    -20.957  0.2549E+02  0.2807E+02
    -20.943  0.2554E+02  0.2842E+02
    -20.929  0.2560E+02  0.2878E+02
    -20.915  0.2567E+02  0.2914E+02
    -20.901  0.2575E+02  0.2949E+02
    -20.887  0.2584E+02  0.2985E+02
    -20.873  0.2593E+02  0.3021E+02
    -20.859  0.2603E+02  0.3057E+02
    -20.845  0.2614E+02  0.3094E+02
    -20.831  0.2625E+02  0.3130E+02
    -20.818  0.2635E+02  0.3167E+02
    -20.804  0.2646E+02  0.3204E+02
    -20.790  0.2656E+02  0.3241E+02
    -20.776  0.2666E+02  0.3278E+02
    -20.762  0.2675E+02  0.3315E+02
    -20.748  0.2684E+02  0.3352E+02
    -20.734  0.2693E+02  0.3390E+02
    -20.720  0.2701E+02  0.3427E+02
    -20.706  0.2708E+02  0.3465E+02
    -20.692  0.2715E+02  0.3503E+02
    -20.679  0.2722E+02  0.3540E+02
    -20.665  0.2727E+02  0.3578E+02
    -20.651  0.2731E+02  0.3616E+02
    -20.637  0.2735E+02  0.3654E+02
    -20.623  0.2736E+02  0.3692E+02
    -20.609  0.2736E+02  0.3730E+02
    -20.595  0.2734E+02  0.3768E+02
    -20.581  0.2730E+02  0.3806E+02
    -20.567  0.2722E+02  0.3844E+02
    -20.553  0.2713E+02  0.3882E+02
    -20.540  0.2700E+02  0.3919E+02
    -20.526  0.2685E+02  0.3957E+02
    -20.512  0.2667E+02  0.3994E+02
    -20.498  0.2646E+02  0.4031E+02
    -20.484  0.2623E+02  0.4067E+02
    -20.470  0.2597E+02  0.4103E+02
    -20.456  0.2570E+02  0.4139E+02
    -20.442  0.2541E+02  0.4174E+02
    -20.428  0.2512E+02  0.4209E+02
    -20.414  0.2481E+02  0.4244E+02
    -20.401  0.2451E+02  0.4278E+02
    -20.387  0.2420E+02  0.4311E+02
    -20.373  0.2390E+02  0.4344E+02
    -20.359  0.2361E+02  0.4377E+02
    -20.345  0.2333E+02  0.4410E+02
    -20.331  0.2306E+02  0.4442E+02
    -20.317  0.2282E+02  0.4473E+02
    -20.303  0.2259E+02  0.4505E+02
    -20.289  0.2238E+02  0.4536E+02
    -20.275  0.2219E+02  0.4567E+02
    -20.262  0.2203E+02  0.4597E+02
    -20.248  0.2189E+02  0.4628E+02
    -20.234  0.2178E+02  0.4658E+02
    -20.220  0.2170E+02  0.4688E+02
    -20.206  0.2164E+02  0.4718E+02
    -20.192  0.2161E+02  0.4748E+02
    -20.178  0.2161E+02  0.4778E+02
    -20.164  0.2164E+02  0.4809E+02
    -20.150  0.2169E+02  0.4839E+02
    -20.136  0.2177E+02  0.4869E+02
    -20.123  0.2187E+02  0.4899E+02
    -20.109  0.2200E+02  0.4930E+02
    -20.095  0.2215E+02  0.4961E+02
    -20.081  0.2231E+02  0.4992E+02
    -20.067  0.2249E+02  0.5023E+02
    -20.053  0.2269E+02  0.5055E+02
    -20.039  0.2290E+02  0.5086E+02
    -20.025  0.2312E+02  0.5118E+02
    -20.011  0.2334E+02  0.5151E+02
    -19.997  0.2358E+02  0.5184E+02
    -19.984  0.2382E+02  0.5217E+02
    -19.970  0.2406E+02  0.5250E+02
    -19.956  0.2431E+02  0.5284E+02
    -19.942  0.2456E+02  0.5318E+02
    -19.928  0.2481E+02  0.5353E+02
    -19.914  0.2507E+02  0.5388E+02
    -19.900  0.2532E+02  0.5423E+02
    -19.886  0.2556E+02  0.5458E+02
    -19.872  0.2581E+02  0.5494E+02
    -19.858  0.2604E+02  0.5530E+02
    -19.844  0.2626E+02  0.5567E+02
    -19.831  0.2647E+02  0.5604E+02
    -19.817  0.2666E+02  0.5641E+02
    -19.803  0.2684E+02  0.5678E+02
    -19.789  0.2699E+02  0.5715E+02
    -19.775  0.2711E+02  0.5753E+02
    -19.761  0.2721E+02  0.5791E+02
    -19.747  0.2728E+02  0.5829E+02
    -19.733  0.2731E+02  0.5867E+02
    -19.719  0.2732E+02  0.5905E+02
    -19.705  0.2730E+02  0.5943E+02
    -19.692  0.2725E+02  0.5981E+02
    -19.678  0.2717E+02  0.6018E+02
    -19.664  0.2707E+02  0.6056E+02
    -19.650  0.2694E+02  0.6094E+02
    -19.636  0.2680E+02  0.6131E+02
    -19.622  0.2664E+02  0.6168E+02
    -19.608  0.2647E+02  0.6205E+02
    -19.594  0.2630E+02  0.6241E+02
    -19.580  0.2612E+02  0.6277E+02
    -19.566  0.2594E+02  0.6314E+02
    -19.553  0.2576E+02  0.6349E+02
    -19.539  0.2559E+02  0.6385E+02
    -19.525  0.2543E+02  0.6420E+02
    -19.511  0.2528E+02  0.6455E+02
    -19.497  0.2514E+02  0.6490E+02
    -19.483  0.2502E+02  0.6525E+02
    -19.469  0.2491E+02  0.6560E+02
    -19.455  0.2482E+02  0.6594E+02
    -19.441  0.2475E+02  0.6629E+02
    -19.427  0.2470E+02  0.6663E+02
    -19.414  0.2467E+02  0.6697E+02
    -19.400  0.2466E+02  0.6732E+02
    -19.386  0.2467E+02  0.6766E+02
    -19.372  0.2470E+02  0.6800E+02
    -19.358  0.2475E+02  0.6835E+02
    -19.344  0.2482E+02  0.6869E+02
    -19.330  0.2491E+02  0.6904E+02
    -19.316  0.2502E+02  0.6939E+02
    -19.302  0.2514E+02  0.6973E+02
    -19.288  0.2528E+02  0.7009E+02
    -19.275  0.2543E+02  0.7044E+02
    -19.261  0.2560E+02  0.7080E+02
    -19.247  0.2578E+02  0.7115E+02
    -19.233  0.2596E+02  0.7151E+02
    -19.219  0.2616E+02  0.7188E+02
    -19.205  0.2635E+02  0.7224E+02
    -19.191  0.2655E+02  0.7261E+02
    -19.177  0.2675E+02  0.7299E+02
    -19.163  0.2694E+02  0.7336E+02
    -19.149  0.2713E+02  0.7374E+02
    -19.136  0.2731E+02  0.7412E+02
    -19.122  0.2748E+02  0.7450E+02
    -19.108  0.2762E+02  0.7488E+02
    -19.094  0.2775E+02  0.7527E+02
    -19.080  0.2786E+02  0.7566E+02
    -19.066  0.2794E+02  0.7604E+02
    -19.052  0.2799E+02  0.7643E+02
    -19.038  0.2802E+02  0.7682E+02
    -19.024  0.2800E+02  0.7721E+02
    -19.010  0.2796E+02  0.7760E+02
    -18.997  0.2788E+02  0.7799E+02
    -18.983  0.2777E+02  0.7837E+02
    -18.969  0.2762E+02  0.7876E+02
    -18.955  0.2744E+02  0.7914E+02
    -18.941  0.2724E+02  0.7952E+02
    -18.927  0.2701E+02  0.7989E+02
    -18.913  0.2675E+02  0.8027E+02
    -18.899  0.2648E+02  0.8063E+02
    -18.885  0.2620E+02  0.8100E+02
    -18.871  0.2590E+02  0.8136E+02
    -18.858  0.2561E+02  0.8171E+02
    -18.844  0.2532E+02  0.8207E+02
    -18.830  0.2503E+02  0.8241E+02
    -18.816  0.2476E+02  0.8276E+02
    -18.802  0.2451E+02  0.8310E+02
    -18.788  0.2427E+02  0.8344E+02
    -18.774  0.2406E+02  0.8377E+02
    -18.760  0.2388E+02  0.8410E+02
    -18.746  0.2373E+02  0.8443E+02
    -18.732  0.2360E+02  0.8476E+02
    -18.719  0.2351E+02  0.8509E+02
    -18.705  0.2345E+02  0.8541E+02
    -18.691  0.2342E+02  0.8574E+02
    -18.677  0.2342E+02  0.8606E+02
    -18.663  0.2344E+02  0.8639E+02
    -18.649  0.2349E+02  0.8672E+02
    -18.635  0.2357E+02  0.8704E+02
    -18.621  0.2366E+02  0.8737E+02
    -18.607  0.2377E+02  0.8770E+02
    -18.593  0.2389E+02  0.8804E+02
    -18.580  0.2403E+02  0.8837E+02
    -18.566  0.2417E+02  0.8870E+02
    -18.552  0.2431E+02  0.8904E+02
    -18.538  0.2446E+02  0.8938E+02
    -18.524  0.2460E+02  0.8972E+02
    -18.510  0.2474E+02  0.9007E+02
    -18.496  0.2488E+02  0.9041E+02
    -18.482  0.2501E+02  0.9076E+02
    -18.468  0.2514E+02  0.9111E+02
    -18.454  0.2525E+02  0.9146E+02
    -18.441  0.2536E+02  0.9182E+02
    -18.427  0.2546E+02  0.9217E+02
    -18.413  0.2554E+02  0.9252E+02
    -18.399  0.2562E+02  0.9288E+02
    -18.385  0.2569E+02  0.9324E+02
    -18.371  0.2575E+02  0.9360E+02
    -18.357  0.2580E+02  0.9395E+02
    -18.343  0.2584E+02  0.9431E+02
    -18.329  0.2587E+02  0.9467E+02
    -18.315  0.2589E+02  0.9503E+02
    -18.302  0.2590E+02  0.9539E+02
    -18.288  0.2591E+02  0.9575E+02
    -18.274  0.2591E+02  0.9611E+02
    -18.260  0.2591E+02  0.9647E+02
    -18.246  0.2589E+02  0.9683E+02
    -18.232  0.2587E+02  0.9719E+02
    -18.218  0.2585E+02  0.9755E+02
    -18.204  0.2582E+02  0.9791E+02
    -18.190  0.2578E+02  0.9827E+02
    -18.176  0.2575E+02  0.9863E+02
    -18.163  0.2571E+02  0.9898E+02
    -18.149  0.2566E+02  0.9934E+02
    -18.135  0.2562E+02  0.9970E+02
    -18.121  0.2557E+02  0.1001E+03
    -18.107  0.2553E+02  0.1004E+03
    -18.093  0.2548E+02  0.1008E+03
    -18.079  0.2544E+02  0.1011E+03
    -18.065  0.2540E+02  0.1015E+03
    -18.051  0.2536E+02  0.1018E+03
    -18.037  0.2533E+02  0.1022E+03
    -18.024  0.2530E+02  0.1025E+03
    -18.010  0.2527E+02  0.1029E+03
    -17.996  0.2524E+02  0.1032E+03
    -17.982  0.2523E+02  0.1036E+03
    -17.968  0.2522E+02  0.1039E+03
    -17.954  0.2521E+02  0.1043E+03
    -17.940  0.2522E+02  0.1046E+03
    -17.926  0.2523E+02  0.1050E+03
    -17.912  0.2526E+02  0.1053E+03
    -17.898  0.2530E+02  0.1057E+03
    -17.885  0.2535E+02  0.1060E+03
    -17.871  0.2542E+02  0.1064E+03
    -17.857  0.2550E+02  0.1067E+03
    -17.843  0.2559E+02  0.1071E+03
    -17.829  0.2570E+02  0.1075E+03
    -17.815  0.2582E+02  0.1078E+03
    -17.801  0.2595E+02  0.1082E+03
    -17.787  0.2609E+02  0.1085E+03
    -17.773  0.2624E+02  0.1089E+03
    -17.759  0.2639E+02  0.1093E+03
    -17.746  0.2654E+02  0.1096E+03
    -17.732  0.2668E+02  0.1100E+03
    -17.718  0.2683E+02  0.1104E+03
    -17.704  0.2696E+02  0.1108E+03
    -17.690  0.2708E+02  0.1111E+03
    -17.676  0.2718E+02  0.1115E+03
    -17.662  0.2727E+02  0.1119E+03
    -17.648  0.2734E+02  0.1123E+03
    -17.634  0.2740E+02  0.1127E+03
    -17.620  0.2743E+02  0.1130E+03
    -17.607  0.2744E+02  0.1134E+03
    -17.593  0.2744E+02  0.1138E+03
    -17.579  0.2741E+02  0.1142E+03
    -17.565  0.2737E+02  0.1146E+03
    -17.551  0.2731E+02  0.1149E+03
    -17.537  0.2725E+02  0.1153E+03
    -17.523  0.2717E+02  0.1157E+03
    -17.509  0.2708E+02  0.1161E+03
    -17.495  0.2699E+02  0.1164E+03
    -17.481  0.2689E+02  0.1168E+03
    -17.468  0.2679E+02  0.1172E+03
    -17.454  0.2669E+02  0.1176E+03
    -17.440  0.2660E+02  0.1179E+03
    -17.426  0.2651E+02  0.1183E+03
    -17.412  0.2643E+02  0.1187E+03
    -17.398  0.2635E+02  0.1190E+03
    -17.384  0.2628E+02  0.1194E+03
    -17.370  0.2622E+02  0.1198E+03
    -17.356  0.2617E+02  0.1201E+03
    -17.342  0.2613E+02  0.1205E+03
    -17.329  0.2609E+02  0.1209E+03
    -17.315  0.2607E+02  0.1212E+03
    -17.301  0.2606E+02  0.1216E+03
    -17.287  0.2605E+02  0.1219E+03
    -17.273  0.2606E+02  0.1223E+03
    -17.259  0.2609E+02  0.1227E+03
    -17.245  0.2612E+02  0.1230E+03
    -17.231  0.2617E+02  0.1234E+03
    -17.217  0.2624E+02  0.1238E+03
    -17.203  0.2632E+02  0.1241E+03
    -17.190  0.2642E+02  0.1245E+03
    -17.176  0.2654E+02  0.1249E+03
    -17.162  0.2667E+02  0.1252E+03
    -17.148  0.2681E+02  0.1256E+03
    -17.134  0.2697E+02  0.1260E+03
    -17.120  0.2714E+02  0.1264E+03
    -17.106  0.2731E+02  0.1267E+03
    -17.092  0.2748E+02  0.1271E+03
    -17.078  0.2765E+02  0.1275E+03
    -17.064  0.2782E+02  0.1279E+03
    -17.051  0.2797E+02  0.1283E+03
    -17.037  0.2810E+02  0.1287E+03
    -17.023  0.2821E+02  0.1291E+03
    -17.009  0.2830E+02  0.1295E+03
    -16.995  0.2835E+02  0.1298E+03
    -16.981  0.2838E+02  0.1302E+03
    -16.967  0.2838E+02  0.1306E+03
    -16.953  0.2835E+02  0.1310E+03
    -16.939  0.2829E+02  0.1314E+03
    -16.925  0.2821E+02  0.1318E+03
    -16.912  0.2811E+02  0.1322E+03
    -16.898  0.2799E+02  0.1326E+03
    -16.884  0.2787E+02  0.1330E+03
    -16.870  0.2774E+02  0.1334E+03
    -16.856  0.2763E+02  0.1337E+03
    -16.842  0.2752E+02  0.1341E+03
    -16.828  0.2742E+02  0.1345E+03
    -16.814  0.2735E+02  0.1349E+03
    -16.800  0.2730E+02  0.1353E+03
    -16.786  0.2728E+02  0.1357E+03
    -16.773  0.2728E+02  0.1360E+03
    -16.759  0.2731E+02  0.1364E+03
    -16.745  0.2737E+02  0.1368E+03
    -16.731  0.2745E+02  0.1372E+03
    -16.717  0.2754E+02  0.1376E+03
    -16.703  0.2765E+02  0.1379E+03
    -16.689  0.2776E+02  0.1383E+03
    -16.675  0.2788E+02  0.1387E+03
    -16.661  0.2799E+02  0.1391E+03
    -16.647  0.2810E+02  0.1395E+03
    -16.634  0.2819E+02  0.1399E+03
    -16.620  0.2826E+02  0.1403E+03
    -16.606  0.2831E+02  0.1407E+03
    -16.592  0.2833E+02  0.1411E+03
    -16.578  0.2832E+02  0.1415E+03
    -16.564  0.2828E+02  0.1419E+03
    -16.550  0.2822E+02  0.1422E+03
    -16.536  0.2812E+02  0.1426E+03
    -16.522  0.2800E+02  0.1430E+03
    -16.508  0.2785E+02  0.1434E+03
    -16.495  0.2767E+02  0.1438E+03
    -16.481  0.2748E+02  0.1442E+03
    -16.467  0.2726E+02  0.1446E+03
    -16.453  0.2703E+02  0.1449E+03
    -16.439  0.2679E+02  0.1453E+03
    -16.425  0.2654E+02  0.1457E+03
    -16.411  0.2628E+02  0.1460E+03
    -16.397  0.2602E+02  0.1464E+03
    -16.383  0.2576E+02  0.1468E+03
    -16.369  0.2550E+02  0.1471E+03
    -16.356  0.2525E+02  0.1475E+03
    -16.342  0.2500E+02  0.1478E+03
    -16.328  0.2476E+02  0.1482E+03
    -16.314  0.2454E+02  0.1485E+03
    -16.300  0.2432E+02  0.1488E+03
    -16.286  0.2411E+02  0.1492E+03
    -16.272  0.2392E+02  0.1495E+03
    -16.258  0.2374E+02  0.1498E+03
    -16.244  0.2357E+02  0.1502E+03
    -16.230  0.2342E+02  0.1505E+03
    -16.217  0.2328E+02  0.1508E+03
    -16.203  0.2316E+02  0.1511E+03
    -16.189  0.2305E+02  0.1515E+03
    -16.175  0.2295E+02  0.1518E+03
    -16.161  0.2287E+02  0.1521E+03
    -16.147  0.2280E+02  0.1524E+03
    -16.133  0.2275E+02  0.1527E+03
    -16.119  0.2271E+02  0.1530E+03
    -16.105  0.2269E+02  0.1534E+03
    -16.091  0.2268E+02  0.1537E+03
    -16.078  0.2269E+02  0.1540E+03
    -16.064  0.2271E+02  0.1543E+03
    -16.050  0.2274E+02  0.1546E+03
    -16.036  0.2279E+02  0.1549E+03
    -16.022  0.2286E+02  0.1552E+03
    -16.008  0.2294E+02  0.1556E+03
    -15.994  0.2303E+02  0.1559E+03
    -15.980  0.2314E+02  0.1562E+03
    -15.966  0.2327E+02  0.1565E+03
    -15.952  0.2341E+02  0.1569E+03
    -15.939  0.2356E+02  0.1572E+03
    -15.925  0.2372E+02  0.1575E+03
    -15.911  0.2389E+02  0.1578E+03
    -15.897  0.2408E+02  0.1582E+03
    -15.883  0.2427E+02  0.1585E+03
    -15.869  0.2446E+02  0.1589E+03
    -15.855  0.2466E+02  0.1592E+03
    -15.841  0.2485E+02  0.1595E+03
    -15.827  0.2505E+02  0.1599E+03
    -15.813  0.2524E+02  0.1602E+03
    -15.800  0.2543E+02  0.1606E+03
    -15.786  0.2560E+02  0.1610E+03
    -15.772  0.2577E+02  0.1613E+03
    -15.758  0.2592E+02  0.1617E+03
    -15.744  0.2606E+02  0.1620E+03
    -15.730  0.2618E+02  0.1624E+03
    -15.716  0.2629E+02  0.1628E+03
    -15.702  0.2638E+02  0.1631E+03
    -15.688  0.2645E+02  0.1635E+03
    -15.674  0.2650E+02  0.1639E+03
    -15.661  0.2653E+02  0.1642E+03
    -15.647  0.2655E+02  0.1646E+03
    -15.633  0.2654E+02  0.1650E+03
    -15.619  0.2651E+02  0.1653E+03
    -15.605  0.2645E+02  0.1657E+03
    -15.591  0.2638E+02  0.1661E+03
    -15.577  0.2629E+02  0.1664E+03
    -15.563  0.2618E+02  0.1668E+03
    -15.549  0.2605E+02  0.1672E+03
    -15.535  0.2591E+02  0.1675E+03
    -15.522  0.2576E+02  0.1679E+03
    -15.508  0.2559E+02  0.1682E+03
    -15.494  0.2542E+02  0.1686E+03
    -15.480  0.2524E+02  0.1689E+03
    -15.466  0.2507E+02  0.1693E+03
    -15.452  0.2490E+02  0.1696E+03
    -15.438  0.2474E+02  0.1700E+03
    -15.424  0.2459E+02  0.1703E+03
    -15.410  0.2447E+02  0.1707E+03
    -15.396  0.2437E+02  0.1710E+03
    -15.383  0.2430E+02  0.1713E+03
    -15.369  0.2426E+02  0.1717E+03
    -15.355  0.2426E+02  0.1720E+03
    -15.341  0.2429E+02  0.1724E+03
    -15.327  0.2435E+02  0.1727E+03
    -15.313  0.2446E+02  0.1730E+03
    -15.299  0.2459E+02  0.1734E+03
    -15.285  0.2475E+02  0.1737E+03
    -15.271  0.2495E+02  0.1741E+03
    -15.257  0.2516E+02  0.1744E+03
    -15.244  0.2539E+02  0.1748E+03
    -15.230  0.2564E+02  0.1751E+03
    -15.216  0.2589E+02  0.1755E+03
    -15.202  0.2614E+02  0.1759E+03
    -15.188  0.2640E+02  0.1762E+03
    -15.174  0.2665E+02  0.1766E+03
    -15.160  0.2689E+02  0.1770E+03
    -15.146  0.2712E+02  0.1773E+03
    -15.132  0.2734E+02  0.1777E+03
    -15.118  0.2755E+02  0.1781E+03
    -15.105  0.2774E+02  0.1785E+03
    -15.091  0.2793E+02  0.1789E+03
    -15.077  0.2810E+02  0.1793E+03
    -15.063  0.2827E+02  0.1797E+03
    -15.049  0.2842E+02  0.1801E+03
    -15.035  0.2857E+02  0.1805E+03
    -15.021  0.2872E+02  0.1809E+03
    -15.007  0.2886E+02  0.1813E+03
    -14.993  0.2900E+02  0.1817E+03
    -14.979  0.2914E+02  0.1821E+03
    -14.966  0.2928E+02  0.1825E+03
    -14.952  0.2941E+02  0.1829E+03
    -14.938  0.2954E+02  0.1833E+03
    -14.924  0.2967E+02  0.1837E+03
    -14.910  0.2979E+02  0.1841E+03
    -14.896  0.2991E+02  0.1845E+03
    -14.882  0.3003E+02  0.1849E+03
    -14.868  0.3013E+02  0.1854E+03
    -14.854  0.3023E+02  0.1858E+03
    -14.840  0.3032E+02  0.1862E+03
    -14.827  0.3040E+02  0.1866E+03
    -14.813  0.3048E+02  0.1871E+03
    -14.799  0.3054E+02  0.1875E+03
    -14.785  0.3060E+02  0.1879E+03
    -14.771  0.3064E+02  0.1883E+03
    -14.757  0.3068E+02  0.1888E+03
    -14.743  0.3070E+02  0.1892E+03
    -14.729  0.3071E+02  0.1896E+03
    -14.715  0.3071E+02  0.1900E+03
    -14.701  0.3069E+02  0.1905E+03
    -14.688  0.3065E+02  0.1909E+03
    -14.674  0.3059E+02  0.1913E+03
    -14.660  0.3051E+02  0.1917E+03
    -14.646  0.3040E+02  0.1922E+03
    -14.632  0.3027E+02  0.1926E+03
    -14.618  0.3012E+02  0.1930E+03
    -14.604  0.2994E+02  0.1934E+03
    -14.590  0.2973E+02  0.1938E+03
    -14.576  0.2950E+02  0.1942E+03
    -14.562  0.2925E+02  0.1946E+03
    -14.549  0.2898E+02  0.1950E+03
    -14.535  0.2870E+02  0.1954E+03
    -14.521  0.2840E+02  0.1958E+03
    -14.507  0.2811E+02  0.1962E+03
    -14.493  0.2781E+02  0.1966E+03
    -14.479  0.2753E+02  0.1970E+03
    -14.465  0.2726E+02  0.1974E+03
    -14.451  0.2701E+02  0.1978E+03
    -14.437  0.2679E+02  0.1981E+03
    -14.423  0.2661E+02  0.1985E+03
    -14.410  0.2645E+02  0.1989E+03
    -14.396  0.2634E+02  0.1992E+03
    -14.382  0.2626E+02  0.1996E+03
    -14.368  0.2623E+02  0.2000E+03
    -14.354  0.2623E+02  0.2003E+03
    -14.340  0.2627E+02  0.2007E+03
    -14.326  0.2634E+02  0.2011E+03
    -14.312  0.2643E+02  0.2014E+03
    -14.298  0.2655E+02  0.2018E+03
    -14.284  0.2669E+02  0.2022E+03
    -14.271  0.2683E+02  0.2025E+03
    -14.257  0.2698E+02  0.2029E+03
    -14.243  0.2713E+02  0.2033E+03
    -14.229  0.2727E+02  0.2037E+03
    -14.215  0.2740E+02  0.2041E+03
    -14.201  0.2751E+02  0.2044E+03
    -14.187  0.2761E+02  0.2048E+03
    -14.173  0.2769E+02  0.2052E+03
    -14.159  0.2776E+02  0.2056E+03
    -14.145  0.2781E+02  0.2060E+03
    -14.132  0.2784E+02  0.2064E+03
    -14.118  0.2786E+02  0.2067E+03
    -14.104  0.2787E+02  0.2071E+03
    -14.090  0.2787E+02  0.2075E+03
    -14.076  0.2786E+02  0.2079E+03
    -14.062  0.2785E+02  0.2083E+03
    -14.048  0.2783E+02  0.2087E+03
    -14.034  0.2782E+02  0.2091E+03
    -14.020  0.2780E+02  0.2095E+03
    -14.006  0.2777E+02  0.2098E+03
    -13.993  0.2775E+02  0.2102E+03
    -13.979  0.2771E+02  0.2106E+03
    -13.965  0.2767E+02  0.2110E+03
    -13.951  0.2762E+02  0.2114E+03
    -13.937  0.2756E+02  0.2118E+03
    -13.923  0.2749E+02  0.2121E+03
    -13.909  0.2741E+02  0.2125E+03
    -13.895  0.2731E+02  0.2129E+03
    -13.881  0.2720E+02  0.2133E+03
    -13.867  0.2708E+02  0.2137E+03
    -13.854  0.2696E+02  0.2140E+03
    -13.840  0.2683E+02  0.2144E+03
    -13.826  0.2669E+02  0.2148E+03
    -13.812  0.2655E+02  0.2152E+03
    -13.798  0.2641E+02  0.2155E+03
    -13.784  0.2628E+02  0.2159E+03
    -13.770  0.2616E+02  0.2162E+03
    -13.756  0.2605E+02  0.2166E+03
    -13.742  0.2596E+02  0.2170E+03
    -13.728  0.2588E+02  0.2173E+03
    -13.715  0.2581E+02  0.2177E+03
    -13.701  0.2577E+02  0.2180E+03
    -13.687  0.2575E+02  0.2184E+03
    -13.673  0.2574E+02  0.2188E+03
    -13.659  0.2575E+02  0.2191E+03
    -13.645  0.2578E+02  0.2195E+03
    -13.631  0.2583E+02  0.2198E+03
    -13.617  0.2589E+02  0.2202E+03
    -13.603  0.2596E+02  0.2206E+03
    -13.589  0.2605E+02  0.2209E+03
    -13.576  0.2614E+02  0.2213E+03
    -13.562  0.2623E+02  0.2216E+03
    -13.548  0.2633E+02  0.2220E+03
    -13.534  0.2643E+02  0.2224E+03
    -13.520  0.2652E+02  0.2228E+03
    -13.506  0.2661E+02  0.2231E+03
    -13.492  0.2669E+02  0.2235E+03
    -13.478  0.2676E+02  0.2239E+03
    -13.464  0.2682E+02  0.2242E+03
    -13.450  0.2687E+02  0.2246E+03
    -13.437  0.2690E+02  0.2250E+03
    -13.423  0.2692E+02  0.2254E+03
    -13.409  0.2692E+02  0.2257E+03
    -13.395  0.2691E+02  0.2261E+03
    -13.381  0.2689E+02  0.2265E+03
    -13.367  0.2685E+02  0.2269E+03
    -13.353  0.2681E+02  0.2272E+03
    -13.339  0.2676E+02  0.2276E+03
    -13.325  0.2671E+02  0.2280E+03
    -13.311  0.2665E+02  0.2283E+03
    -13.298  0.2661E+02  0.2287E+03
    -13.284  0.2657E+02  0.2291E+03
    -13.270  0.2654E+02  0.2294E+03
    -13.256  0.2652E+02  0.2298E+03
    -13.242  0.2652E+02  0.2302E+03
    -13.228  0.2654E+02  0.2306E+03
    -13.214  0.2658E+02  0.2309E+03
    -13.200  0.2663E+02  0.2313E+03
    -13.186  0.2671E+02  0.2317E+03
    -13.172  0.2680E+02  0.2320E+03
    -13.159  0.2690E+02  0.2324E+03
    -13.145  0.2702E+02  0.2328E+03
    -13.131  0.2715E+02  0.2332E+03
    -13.117  0.2729E+02  0.2335E+03
    -13.103  0.2744E+02  0.2339E+03
    -13.089  0.2758E+02  0.2343E+03
    -13.075  0.2773E+02  0.2347E+03
    -13.061  0.2787E+02  0.2351E+03
    -13.047  0.2801E+02  0.2355E+03
    -13.033  0.2815E+02  0.2359E+03
    -13.019  0.2828E+02  0.2363E+03
    -13.006  0.2840E+02  0.2366E+03
    -12.992  0.2853E+02  0.2370E+03
    -12.978  0.2864E+02  0.2374E+03
    -12.964  0.2875E+02  0.2378E+03
    -12.950  0.2887E+02  0.2382E+03
    -12.936  0.2898E+02  0.2386E+03
    -12.922  0.2909E+02  0.2391E+03
    -12.908  0.2920E+02  0.2395E+03
    -12.894  0.2932E+02  0.2399E+03
    -12.880  0.2944E+02  0.2403E+03
    -12.867  0.2956E+02  0.2407E+03
    -12.853  0.2970E+02  0.2411E+03
    -12.839  0.2983E+02  0.2415E+03
    -12.825  0.2997E+02  0.2419E+03
    -12.811  0.3012E+02  0.2423E+03
    -12.797  0.3027E+02  0.2428E+03
    -12.783  0.3043E+02  0.2432E+03
    -12.769  0.3059E+02  0.2436E+03