 138 138   0   0
  0.2657342E+02  0.2130000E-08  0.1721659E-08  0.1000000E-08  0.5000000E-15
  1.000000000000000E-004
  CAR 
 unknown system                          
      5.80648594    -24.07221431 2000     -1.59720468      1.00000000
    -24.072  0.0000E+00  0.0000E+00
    -24.057  0.0000E+00  0.0000E+00
    -24.042  0.0000E+00  0.0000E+00
    -24.027  0.0000E+00  0.0000E+00
    -24.012  0.0000E+00  0.0000E+00
    -23.997  0.0000E+00  0.0000E+00
    -23.983  0.0000E+00  0.0000E+00
    -23.968  0.0000E+00  0.0000E+00
    -23.953  0.0000E+00  0.0000E+00
    -23.938  0.0000E+00  0.0000E+00
    -23.923  0.0000E+00  0.0000E+00
    -23.908  0.0000E+00  0.0000E+00
    -23.893  0.0000E+00  0.0000E+00
    -23.878  0.0000E+00  0.0000E+00
    -23.863  0.0000E+00  0.0000E+00
    -23.848  0.0000E+00  0.0000E+00
    -23.833  0.0000E+00  0.0000E+00
    -23.818  0.0000E+00  0.0000E+00
    -23.803  0.0000E+00  0.0000E+00
    -23.788  0.0000E+00  0.0000E+00
    -23.773  0.0000E+00  0.0000E+00
    -23.758  0.0000E+00  0.0000E+00
    -23.743  0.0000E+00  0.0000E+00
    -23.728  0.0000E+00  0.0000E+00
    -23.713  0.0000E+00  0.0000E+00
    -23.699  0.0000E+00  0.0000E+00
    -23.684  0.0000E+00  0.0000E+00
    -23.669  0.0000E+00  0.0000E+00
    -23.654  0.0000E+00  0.0000E+00
    -23.639  0.0000E+00  0.0000E+00
    -23.624  0.0000E+00  0.0000E+00
    -23.609  0.0000E+00  0.0000E+00
    -23.594  0.0000E+00  0.0000E+00
    -23.579  0.0000E+00  0.0000E+00
    -23.564  0.0000E+00  0.0000E+00
    -23.549  0.0000E+00  0.0000E+00
    -23.534  0.0000E+00  0.0000E+00
    -23.519  0.0000E+00  0.0000E+00
    -23.504  0.0000E+00  0.0000E+00
    -23.489  0.0000E+00  0.0000E+00
    -23.474  0.0000E+00  0.0000E+00
    -23.459  0.0000E+00  0.0000E+00
    -23.444  0.0000E+00  0.0000E+00
    -23.430  0.0000E+00  0.0000E+00
    -23.415  0.0000E+00  0.0000E+00
    -23.400  0.0000E+00  0.0000E+00
    -23.385  0.0000E+00  0.0000E+00
    -23.370  0.0000E+00  0.0000E+00
    -23.355  0.0000E+00  0.0000E+00
    -23.340  0.0000E+00  0.0000E+00
    -23.325  0.0000E+00  0.0000E+00
    -23.310  0.0000E+00  0.0000E+00
    -23.295  0.0000E+00  0.0000E+00
    -23.280  0.0000E+00  0.0000E+00
    -23.265  0.0000E+00  0.0000E+00
    -23.250  0.7428E-14  0.1110E-15
    -23.235  0.7428E-14  0.2220E-15
    -23.220  0.1486E-13  0.4441E-15
    -23.205  0.4457E-13  0.1110E-14
    -23.190  0.9739E-13  0.2566E-14
    -23.175  0.2270E-12  0.5958E-14
    -23.160  0.5199E-12  0.1373E-13
    -23.146  0.1174E-11  0.3128E-13
    -23.131  0.2612E-11  0.7033E-13
    -23.116  0.5762E-11  0.1564E-12
    -23.101  0.1256E-10  0.3441E-12
    -23.086  0.2709E-10  0.7490E-12
    -23.071  0.5774E-10  0.1612E-11
    -23.056  0.1218E-09  0.3432E-11
    -23.041  0.2539E-09  0.7226E-11
    -23.026  0.5235E-09  0.1505E-10
    -23.011  0.1067E-08  0.3100E-10
    -22.996  0.2152E-08  0.6317E-10
    -22.981  0.4292E-08  0.1273E-09
    -22.966  0.8464E-08  0.2538E-09
    -22.951  0.1651E-07  0.5005E-09
    -22.936  0.3183E-07  0.9763E-09
    -22.921  0.6070E-07  0.1884E-08
    -22.906  0.1145E-06  0.3595E-08
    -22.891  0.2135E-06  0.6786E-08
    -22.876  0.3938E-06  0.1267E-07
    -22.862  0.7183E-06  0.2341E-07
    -22.847  0.1296E-05  0.4277E-07
    -22.832  0.2311E-05  0.7731E-07
    -22.817  0.4076E-05  0.1382E-06
    -22.802  0.7111E-05  0.2445E-06
    -22.787  0.1227E-04  0.4279E-06
    -22.772  0.2093E-04  0.7406E-06
    -22.757  0.3530E-04  0.1268E-05
    -22.742  0.5890E-04  0.2149E-05
    -22.727  0.9719E-04  0.3601E-05
    -22.712  0.1586E-03  0.5972E-05
    -22.697  0.2559E-03  0.9796E-05
    -22.682  0.4084E-03  0.1590E-04
    -22.667  0.6445E-03  0.2553E-04
    -22.652  0.1006E-02  0.4057E-04
    -22.637  0.1553E-02  0.6378E-04
    -22.622  0.2370E-02  0.9921E-04
    -22.607  0.3579E-02  0.1527E-03
    -22.592  0.5344E-02  0.2326E-03
    -22.578  0.7891E-02  0.3505E-03
    -22.563  0.1153E-01  0.5228E-03
    -22.548  0.1665E-01  0.7716E-03
    -22.533  0.2379E-01  0.1127E-02
    -22.518  0.3361E-01  0.1630E-02
    -22.503  0.4698E-01  0.2332E-02
    -22.488  0.6496E-01  0.3303E-02
    -22.473  0.8883E-01  0.4631E-02
    -22.458  0.1202E+00  0.6427E-02
    -22.443  0.1608E+00  0.8830E-02
    -22.428  0.2129E+00  0.1201E-01
    -22.413  0.2788E+00  0.1618E-01
    -22.398  0.3612E+00  0.2158E-01
    -22.383  0.4630E+00  0.2850E-01
    -22.368  0.5872E+00  0.3727E-01
    -22.353  0.7370E+00  0.4829E-01
    -22.338  0.9153E+00  0.6197E-01
    -22.323  0.1125E+01  0.7879E-01
    -22.308  0.1369E+01  0.9924E-01
    -22.294  0.1648E+01  0.1239E+00
    -22.279  0.1964E+01  0.1532E+00
    -22.264  0.2318E+01  0.1879E+00
    -22.249  0.2709E+01  0.2284E+00
    -22.234  0.3134E+01  0.2752E+00
    -22.219  0.3592E+01  0.3289E+00
    -22.204  0.4077E+01  0.3898E+00
    -22.189  0.4585E+01  0.4584E+00
    -22.174  0.5108E+01  0.5347E+00
    -22.159  0.5640E+01  0.6190E+00
    -22.144  0.6173E+01  0.7113E+00
    -22.129  0.6696E+01  0.8114E+00
    -22.114  0.7202E+01  0.9190E+00
    -22.099  0.7681E+01  0.1034E+01
    -22.084  0.8125E+01  0.1155E+01
    -22.069  0.8524E+01  0.1283E+01
    -22.054  0.8871E+01  0.1415E+01
    -22.039  0.9160E+01  0.1552E+01
    -22.024  0.9385E+01  0.1692E+01
    -22.010  0.9541E+01  0.1835E+01
    -21.995  0.9626E+01  0.1979E+01
    -21.980  0.9637E+01  0.2123E+01
    -21.965  0.9576E+01  0.2266E+01
    -21.950  0.9442E+01  0.2407E+01
    -21.935  0.9240E+01  0.2545E+01
    -21.920  0.8973E+01  0.2679E+01
    -21.905  0.8648E+01  0.2809E+01
    -21.890  0.8270E+01  0.2932E+01
    -21.875  0.7849E+01  0.3050E+01
    -21.860  0.7393E+01  0.3160E+01
    -21.845  0.6912E+01  0.3263E+01
    -21.830  0.6417E+01  0.3359E+01
    -21.815  0.5919E+01  0.3448E+01
    -21.800  0.5428E+01  0.3529E+01
    -21.785  0.4955E+01  0.3603E+01
    -21.770  0.4511E+01  0.3671E+01
    -21.755  0.4105E+01  0.3732E+01
    -21.741  0.3746E+01  0.3788E+01
    -21.726  0.3443E+01  0.3839E+01
    -21.711  0.3202E+01  0.3887E+01
    -21.696  0.3030E+01  0.3932E+01
    -21.681  0.2930E+01  0.3976E+01
    -21.666  0.2907E+01  0.4020E+01
    -21.651  0.2962E+01  0.4064E+01
    -21.636  0.3095E+01  0.4110E+01
    -21.621  0.3305E+01  0.4160E+01
    -21.606  0.3591E+01  0.4213E+01
    -21.591  0.3948E+01  0.4272E+01
    -21.576  0.4370E+01  0.4338E+01
    -21.561  0.4851E+01  0.4410E+01
    -21.546  0.5382E+01  0.4491E+01
    -21.531  0.5955E+01  0.4580E+01
    -21.516  0.6558E+01  0.4678E+01
    -21.501  0.7182E+01  0.4785E+01
    -21.486  0.7813E+01  0.4902E+01
    -21.471  0.8442E+01  0.5028E+01
    -21.457  0.9056E+01  0.5163E+01
    -21.442  0.9645E+01  0.5307E+01
    -21.427  0.1020E+02  0.5460E+01
    -21.412  0.1071E+02  0.5620E+01
    -21.397  0.1118E+02  0.5787E+01
    -21.382  0.1159E+02  0.5960E+01
    -21.367  0.1195E+02  0.6139E+01
    -21.352  0.1225E+02  0.6322E+01
    -21.337  0.1250E+02  0.6509E+01
    -21.322  0.1271E+02  0.6699E+01
    -21.307  0.1287E+02  0.6891E+01
    -21.292  0.1300E+02  0.7086E+01
    -21.277  0.1310E+02  0.7281E+01
    -21.262  0.1318E+02  0.7478E+01
    -21.247  0.1326E+02  0.7677E+01
    -21.232  0.1334E+02  0.7876E+01
    -21.217  0.1342E+02  0.8077E+01
    -21.202  0.1353E+02  0.8279E+01
    -21.187  0.1365E+02  0.8483E+01
    -21.173  0.1380E+02  0.8689E+01
    -21.158  0.1399E+02  0.8898E+01
    -21.143  0.1421E+02  0.9111E+01
    -21.128  0.1446E+02  0.9327E+01
    -21.113  0.1475E+02  0.9547E+01
    -21.098  0.1507E+02  0.9772E+01
    -21.083  0.1541E+02  0.1000E+02
    -21.068  0.1578E+02  0.1024E+02
    -21.053  0.1617E+02  0.1048E+02
    -21.038  0.1657E+02  0.1073E+02
    -21.023  0.1697E+02  0.1098E+02
    -21.008  0.1736E+02  0.1124E+02
    -20.993  0.1775E+02  0.1151E+02
    -20.978  0.1812E+02  0.1178E+02
    -20.963  0.1846E+02  0.1205E+02
    -20.948  0.1877E+02  0.1233E+02
    -20.933  0.1905E+02  0.1262E+02
    -20.918  0.1928E+02  0.1291E+02
    -20.903  0.1947E+02  0.1320E+02
    -20.889  0.1962E+02  0.1349E+02
    -20.874  0.1972E+02  0.1379E+02
    -20.859  0.1977E+02  0.1408E+02
    -20.844  0.1977E+02  0.1438E+02
    -20.829  0.1974E+02  0.1467E+02
    -20.814  0.1967E+02  0.1497E+02
    -20.799  0.1957E+02  0.1526E+02
    -20.784  0.1944E+02  0.1555E+02
    -20.769  0.1930E+02  0.1584E+02
    -20.754  0.1914E+02  0.1612E+02
    -20.739  0.1899E+02  0.1641E+02
    -20.724  0.1883E+02  0.1669E+02
    -20.709  0.1869E+02  0.1697E+02
    -20.694  0.1856E+02  0.1725E+02
    -20.679  0.1846E+02  0.1752E+02
    -20.664  0.1838E+02  0.1780E+02
    -20.649  0.1833E+02  0.1807E+02
    -20.634  0.1831E+02  0.1834E+02
    -20.619  0.1832E+02  0.1862E+02
    -20.605  0.1836E+02  0.1889E+02
    -20.590  0.1843E+02  0.1917E+02
    -20.575  0.1853E+02  0.1944E+02
    -20.560  0.1864E+02  0.1972E+02
    -20.545  0.1878E+02  0.2000E+02
    -20.530  0.1893E+02  0.2029E+02
    -20.515  0.1910E+02  0.2057E+02
    -20.500  0.1927E+02  0.2086E+02
    -20.485  0.1944E+02  0.2115E+02
    -20.470  0.1961E+02  0.2144E+02
    -20.455  0.1979E+02  0.2174E+02
    -20.440  0.1995E+02  0.2204E+02
    -20.425  0.2011E+02  0.2234E+02
    -20.410  0.2027E+02  0.2264E+02
    -20.395  0.2041E+02  0.2295E+02
    -20.380  0.2055E+02  0.2325E+02
    -20.365  0.2068E+02  0.2356E+02
    -20.350  0.2081E+02  0.2387E+02
    -20.336  0.2092E+02  0.2419E+02
    -20.321  0.2103E+02  0.2450E+02
    -20.306  0.2113E+02  0.2482E+02
    -20.291  0.2122E+02  0.2513E+02
    -20.276  0.2131E+02  0.2545E+02
    -20.261  0.2140E+02  0.2577E+02
    -20.246  0.2148E+02  0.2609E+02
    -20.231  0.2155E+02  0.2641E+02
    -20.216  0.2163E+02  0.2674E+02
    -20.201  0.2170E+02  0.2706E+02
    -20.186  0.2176E+02  0.2739E+02
    -20.171  0.2182E+02  0.2771E+02
    -20.156  0.2187E+02  0.2804E+02
    -20.141  0.2192E+02  0.2837E+02
    -20.126  0.2195E+02  0.2870E+02
    -20.111  0.2197E+02  0.2902E+02
    -20.096  0.2197E+02  0.2935E+02
    -20.081  0.2195E+02  0.2968E+02
    -20.066  0.2191E+02  0.3001E+02
    -20.052  0.2184E+02  0.3034E+02
    -20.037  0.2173E+02  0.3066E+02
    -20.022  0.2160E+02  0.3098E+02
    -20.007  0.2143E+02  0.3130E+02
    -19.992  0.2123E+02  0.3162E+02
    -19.977  0.2100E+02  0.3193E+02
    -19.962  0.2073E+02  0.3224E+02
    -19.947  0.2043E+02  0.3255E+02
    -19.932  0.2011E+02  0.3285E+02
    -19.917  0.1978E+02  0.3315E+02
    -19.902  0.1942E+02  0.3344E+02
    -19.887  0.1907E+02  0.3372E+02
    -19.872  0.1871E+02  0.3400E+02
    -19.857  0.1837E+02  0.3428E+02
    -19.842  0.1804E+02  0.3455E+02
    -19.827  0.1774E+02  0.3481E+02
    -19.812  0.1747E+02  0.3507E+02
    -19.797  0.1724E+02  0.3533E+02
    -19.782  0.1706E+02  0.3558E+02
    -19.768  0.1693E+02  0.3584E+02
    -19.753  0.1684E+02  0.3609E+02
    -19.738  0.1681E+02  0.3634E+02
    -19.723  0.1683E+02  0.3659E+02
    -19.708  0.1689E+02  0.3684E+02
    -19.693  0.1700E+02  0.3710E+02
    -19.678  0.1714E+02  0.3735E+02
    -19.663  0.1730E+02  0.3761E+02
    -19.648  0.1749E+02  0.3787E+02
    -19.633  0.1769E+02  0.3814E+02
    -19.618  0.1789E+02  0.3841E+02
    -19.603  0.1808E+02  0.3868E+02
    -19.588  0.1826E+02  0.3895E+02
    -19.573  0.1842E+02  0.3922E+02
    -19.558  0.1856E+02  0.3950E+02
    -19.543  0.1867E+02  0.3978E+02
    -19.528  0.1875E+02  0.4006E+02
    -19.513  0.1880E+02  0.4034E+02
    -19.498  0.1882E+02  0.4062E+02
    -19.484  0.1881E+02  0.4091E+02
    -19.469  0.1877E+02  0.4119E+02
    -19.454  0.1872E+02  0.4147E+02
    -19.439  0.1865E+02  0.4174E+02
    -19.424  0.1857E+02  0.4202E+02
    -19.409  0.1848E+02  0.4230E+02
    -19.394  0.1839E+02  0.4257E+02
    -19.379  0.1831E+02  0.4285E+02
    -19.364  0.1823E+02  0.4312E+02
    -19.349  0.1816E+02  0.4339E+02
    -19.334  0.1811E+02  0.4366E+02
    -19.319  0.1808E+02  0.4393E+02
    -19.304  0.1807E+02  0.4420E+02
    -19.289  0.1808E+02  0.4447E+02
    -19.274  0.1812E+02  0.4474E+02
    -19.259  0.1819E+02  0.4501E+02
    -19.244  0.1829E+02  0.4529E+02
    -19.229  0.1842E+02  0.4556E+02
    -19.214  0.1858E+02  0.4584E+02
    -19.200  0.1877E+02  0.4612E+02
    -19.185  0.1899E+02  0.4641E+02
    -19.170  0.1923E+02  0.4669E+02
    -19.155  0.1949E+02  0.4698E+02
    -19.140  0.1976E+02  0.4728E+02
    -19.125  0.2005E+02  0.4758E+02
    -19.110  0.2033E+02  0.4788E+02
    -19.095  0.2061E+02  0.4819E+02
    -19.080  0.2088E+02  0.4850E+02
    -19.065  0.2113E+02  0.4882E+02
    -19.050  0.2135E+02  0.4914E+02
    -19.035  0.2154E+02  0.4946E+02
    -19.020  0.2169E+02  0.4978E+02
    -19.005  0.2180E+02  0.5011E+02
    -18.990  0.2187E+02  0.5044E+02
    -18.975  0.2189E+02  0.5076E+02
    -18.960  0.2187E+02  0.5109E+02
    -18.945  0.2180E+02  0.5142E+02
    -18.931  0.2169E+02  0.5174E+02
    -18.916  0.2154E+02  0.5206E+02
    -18.901  0.2136E+02  0.5238E+02
    -18.886  0.2116E+02  0.5270E+02
    -18.871  0.2094E+02  0.5301E+02
    -18.856  0.2070E+02  0.5332E+02
    -18.841  0.2047E+02  0.5363E+02
    -18.826  0.2024E+02  0.5393E+02
    -18.811  0.2002E+02  0.5423E+02
    -18.796  0.1982E+02  0.5452E+02
    -18.781  0.1965E+02  0.5482E+02
    -18.766  0.1952E+02  0.5511E+02
    -18.751  0.1942E+02  0.5540E+02
    -18.736  0.1936E+02  0.5569E+02
    -18.721  0.1934E+02  0.5598E+02
    -18.706  0.1936E+02  0.5627E+02
    -18.691  0.1941E+02  0.5656E+02
    -18.676  0.1951E+02  0.5685E+02
    -18.661  0.1963E+02  0.5714E+02
    -18.647  0.1977E+02  0.5744E+02
    -18.632  0.1992E+02  0.5774E+02
    -18.617  0.2008E+02  0.5804E+02
    -18.602  0.2023E+02  0.5834E+02
    -18.587  0.2036E+02  0.5864E+02
    -18.572  0.2046E+02  0.5895E+02
    -18.557  0.2053E+02  0.5926E+02
    -18.542  0.2055E+02  0.5956E+02
    -18.527  0.2051E+02  0.5987E+02
    -18.512  0.2042E+02  0.6017E+02
    -18.497  0.2028E+02  0.6048E+02
    -18.482  0.2007E+02  0.6078E+02
    -18.467  0.1981E+02  0.6107E+02
    -18.452  0.1950E+02  0.6137E+02
    -18.437  0.1915E+02  0.6165E+02
    -18.422  0.1877E+02  0.6193E+02
    -18.407  0.1837E+02  0.6221E+02
    -18.392  0.1798E+02  0.6248E+02
    -18.377  0.1759E+02  0.6274E+02
    -18.363  0.1723E+02  0.6300E+02
    -18.348  0.1691E+02  0.6325E+02
    -18.333  0.1663E+02  0.6350E+02
    -18.318  0.1642E+02  0.6374E+02
    -18.303  0.1626E+02  0.6399E+02
    -18.288  0.1618E+02  0.6423E+02
    -18.273  0.1615E+02  0.6447E+02
    -18.258  0.1619E+02  0.6471E+02
    -18.243  0.1628E+02  0.6495E+02
    -18.228  0.1642E+02  0.6520E+02
    -18.213  0.1659E+02  0.6545E+02
    -18.198  0.1678E+02  0.6570E+02
    -18.183  0.1698E+02  0.6595E+02
    -18.168  0.1718E+02  0.6621E+02
    -18.153  0.1737E+02  0.6647E+02
    -18.138  0.1754E+02  0.6673E+02
    -18.123  0.1767E+02  0.6700E+02
    -18.108  0.1778E+02  0.6726E+02
    -18.093  0.1785E+02  0.6753E+02
    -18.079  0.1788E+02  0.6779E+02
    -18.064  0.1789E+02  0.6806E+02
    -18.049  0.1788E+02  0.6833E+02
    -18.034  0.1785E+02  0.6860E+02
    -18.019  0.1782E+02  0.6886E+02
    -18.004  0.1779E+02  0.6913E+02
    -17.989  0.1778E+02  0.6939E+02
    -17.974  0.1778E+02  0.6966E+02
    -17.959  0.1782E+02  0.6993E+02
    -17.944  0.1789E+02  0.7019E+02
    -17.929  0.1799E+02  0.7046E+02
    -17.914  0.1814E+02  0.7073E+02
    -17.899  0.1833E+02  0.7101E+02
    -17.884  0.1856E+02  0.7129E+02
    -17.869  0.1882E+02  0.7157E+02
    -17.854  0.1912E+02  0.7185E+02
    -17.839  0.1943E+02  0.7214E+02
    -17.824  0.1977E+02  0.7244E+02
    -17.809  0.2012E+02  0.7274E+02
    -17.795  0.2047E+02  0.7304E+02
    -17.780  0.2081E+02  0.7336E+02
    -17.765  0.2115E+02  0.7367E+02
    -17.750  0.2148E+02  0.7399E+02
    -17.735  0.2178E+02  0.7432E+02
    -17.720  0.2207E+02  0.7465E+02
    -17.705  0.2233E+02  0.7498E+02
    -17.690  0.2256E+02  0.7532E+02
    -17.675  0.2277E+02  0.7566E+02
    -17.660  0.2295E+02  0.7600E+02
    -17.645  0.2310E+02  0.7635E+02
    -17.630  0.2322E+02  0.7670E+02
    -17.615  0.2332E+02  0.7704E+02
    -17.600  0.2339E+02  0.7739E+02
    -17.585  0.2345E+02  0.7774E+02
    -17.570  0.2348E+02  0.7809E+02
    -17.555  0.2349E+02  0.7845E+02
    -17.540  0.2350E+02  0.7880E+02
    -17.526  0.2348E+02  0.7915E+02
    -17.511  0.2346E+02  0.7950E+02
    -17.496  0.2344E+02  0.7985E+02
    -17.481  0.2341E+02  0.8020E+02
    -17.466  0.2337E+02  0.8055E+02
    -17.451  0.2334E+02  0.8090E+02
    -17.436  0.2331E+02  0.8125E+02
    -17.421  0.2328E+02  0.8159E+02
    -17.406  0.2325E+02  0.8194E+02
    -17.391  0.2323E+02  0.8229E+02
    -17.376  0.2321E+02  0.8263E+02
    -17.361  0.2318E+02  0.8298E+02
    -17.346  0.2316E+02  0.8333E+02
    -17.331  0.2312E+02  0.8367E+02
    -17.316  0.2308E+02  0.8402E+02
    -17.301  0.2303E+02  0.8436E+02
    -17.286  0.2296E+02  0.8471E+02
    -17.271  0.2286E+02  0.8505E+02
    -17.256  0.2275E+02  0.8539E+02
    -17.242  0.2262E+02  0.8573E+02
    -17.227  0.2246E+02  0.8606E+02
    -17.212  0.2228E+02  0.8639E+02
    -17.197  0.2207E+02  0.8672E+02
    -17.182  0.2185E+02  0.8705E+02
    -17.167  0.2160E+02  0.8737E+02
    -17.152  0.2135E+02  0.8769E+02
    -17.137  0.2108E+02  0.8801E+02
    -17.122  0.2081E+02  0.8832E+02
    -17.107  0.2054E+02  0.8863E+02
    -17.092  0.2028E+02  0.8893E+02
    -17.077  0.2003E+02  0.8923E+02
    -17.062  0.1980E+02  0.8952E+02
    -17.047  0.1959E+02  0.8982E+02
    -17.032  0.1940E+02  0.9011E+02
    -17.017  0.1924E+02  0.9039E+02
    -17.002  0.1912E+02  0.9068E+02
    -16.987  0.1903E+02  0.9096E+02
    -16.972  0.1898E+02  0.9125E+02
    -16.958  0.1896E+02  0.9153E+02
    -16.943  0.1898E+02  0.9182E+02
    -16.928  0.1904E+02  0.9210E+02
    -16.913  0.1912E+02  0.9239E+02
    -16.898  0.1924E+02  0.9267E+02
    -16.883  0.1938E+02  0.9296E+02
    -16.868  0.1955E+02  0.9326E+02
    -16.853  0.1973E+02  0.9355E+02
    -16.838  0.1992E+02  0.9385E+02
    -16.823  0.2012E+02  0.9415E+02
    -16.808  0.2031E+02  0.9445E+02
    -16.793  0.2050E+02  0.9476E+02
    -16.778  0.2067E+02  0.9507E+02
    -16.763  0.2083E+02  0.9538E+02
    -16.748  0.2097E+02  0.9569E+02
    -16.733  0.2109E+02  0.9601E+02
    -16.718  0.2119E+02  0.9632E+02
    -16.703  0.2126E+02  0.9664E+02
    -16.688  0.2130E+02  0.9696E+02
    -16.674  0.2133E+02  0.9728E+02
    -16.659  0.2134E+02  0.9760E+02
    -16.644  0.2133E+02  0.9792E+02
    -16.629  0.2132E+02  0.9824E+02
    -16.614  0.2130E+02  0.9855E+02
    -16.599  0.2128E+02  0.9887E+02
    -16.584  0.2126E+02  0.9919E+02
    -16.569  0.2126E+02  0.9951E+02
    -16.554  0.2127E+02  0.9983E+02
    -16.539  0.2129E+02  0.1001E+03
    -16.524  0.2134E+02  0.1005E+03
    -16.509  0.2140E+02  0.1008E+03
    -16.494  0.2148E+02  0.1011E+03
    -16.479  0.2157E+02  0.1014E+03
    -16.464  0.2169E+02  0.1018E+03
    -16.449  0.2181E+02  0.1021E+03
    -16.434  0.2195E+02  0.1024E+03
    -16.419  0.2209E+02  0.1027E+03
    -16.404  0.2223E+02  0.1031E+03
    -16.390  0.2237E+02  0.1034E+03
    -16.375  0.2251E+02  0.1037E+03
    -16.360  0.2263E+02  0.1041E+03
    -16.345  0.2274E+02  0.1044E+03
    -16.330  0.2282E+02  0.1048E+03
    -16.315  0.2289E+02  0.1051E+03
    -16.300  0.2293E+02  0.1054E+03
    -16.285  0.2294E+02  0.1058E+03
    -16.270  0.2293E+02  0.1061E+03
    -16.255  0.2289E+02  0.1065E+03
    -16.240  0.2282E+02  0.1068E+03
    -16.225  0.2273E+02  0.1072E+03
    -16.210  0.2261E+02  0.1075E+03
    -16.195  0.2247E+02  0.1078E+03
    -16.180  0.2232E+02  0.1082E+03
    -16.165  0.2214E+02  0.1085E+03
    -16.150  0.2196E+02  0.1088E+03
    -16.135  0.2178E+02  0.1091E+03
    -16.121  0.2159E+02  0.1095E+03
    -16.106  0.2140E+02  0.1098E+03
    -16.091  0.2123E+02  0.1101E+03
    -16.076  0.2106E+02  0.1104E+03
    -16.061  0.2091E+02  0.1107E+03
    -16.046  0.2078E+02  0.1110E+03
    -16.031  0.2067E+02  0.1113E+03
    -16.016  0.2058E+02  0.1117E+03
    -16.001  0.2051E+02  0.1120E+03
    -15.986  0.2046E+02  0.1123E+03
    -15.971  0.2043E+02  0.1126E+03
    -15.956  0.2041E+02  0.1129E+03
    -15.941  0.2040E+02  0.1132E+03
    -15.926  0.2041E+02  0.1135E+03
    -15.911  0.2041E+02  0.1138E+03
    -15.896  0.2042E+02  0.1141E+03
    -15.881  0.2043E+02  0.1144E+03
    -15.866  0.2043E+02  0.1147E+03
    -15.851  0.2043E+02  0.1150E+03
    -15.837  0.2042E+02  0.1153E+03
    -15.822  0.2041E+02  0.1156E+03
    -15.807  0.2039E+02  0.1159E+03
    -15.792  0.2036E+02  0.1162E+03
    -15.777  0.2033E+02  0.1165E+03
    -15.762  0.2030E+02  0.1168E+03
    -15.747  0.2027E+02  0.1171E+03
    -15.732  0.2024E+02  0.1174E+03
    -15.717  0.2022E+02  0.1178E+03
    -15.702  0.2020E+02  0.1181E+03
    -15.687  0.2020E+02  0.1184E+03
    -15.672  0.2020E+02  0.1187E+03
    -15.657  0.2022E+02  0.1190E+03
    -15.642  0.2024E+02  0.1193E+03
    -15.627  0.2028E+02  0.1196E+03
    -15.612  0.2032E+02  0.1199E+03
    -15.597  0.2037E+02  0.1202E+03
    -15.582  0.2042E+02  0.1205E+03
    -15.567  0.2047E+02  0.1208E+03
    -15.553  0.2052E+02  0.1211E+03
    -15.538  0.2056E+02  0.1214E+03
    -15.523  0.2059E+02  0.1217E+03
    -15.508  0.2062E+02  0.1220E+03
    -15.493  0.2064E+02  0.1223E+03
    -15.478  0.2064E+02  0.1226E+03
    -15.463  0.2064E+02  0.1229E+03
    -15.448  0.2063E+02  0.1232E+03
    -15.433  0.2061E+02  0.1236E+03
    -15.418  0.2058E+02  0.1239E+03
    -15.403  0.2056E+02  0.1242E+03
    -15.388  0.2054E+02  0.1245E+03
    -15.373  0.2053E+02  0.1248E+03
    -15.358  0.2053E+02  0.1251E+03
    -15.343  0.2054E+02  0.1254E+03
    -15.328  0.2057E+02  0.1257E+03
    -15.313  0.2061E+02  0.1260E+03
    -15.298  0.2067E+02  0.1263E+03
    -15.283  0.2075E+02  0.1266E+03
    -15.269  0.2085E+02  0.1269E+03
    -15.254  0.2097E+02  0.1273E+03
    -15.239  0.2111E+02  0.1276E+03
    -15.224  0.2125E+02  0.1279E+03
    -15.209  0.2141E+02  0.1282E+03
    -15.194  0.2158E+02  0.1285E+03
    -15.179  0.2174E+02  0.1289E+03
    -15.164  0.2191E+02  0.1292E+03
    -15.149  0.2207E+02  0.1295E+03
    -15.134  0.2223E+02  0.1298E+03
    -15.119  0.2237E+02  0.1302E+03
    -15.104  0.2250E+02  0.1305E+03
    -15.089  0.2262E+02  0.1309E+03
    -15.074  0.2271E+02  0.1312E+03
    -15.059  0.2278E+02  0.1315E+03
    -15.044  0.2283E+02  0.1319E+03
    -15.029  0.2285E+02  0.1322E+03
    -15.014  0.2285E+02  0.1326E+03
    -14.999  0.2283E+02  0.1329E+03
    -14.985  0.2278E+02  0.1332E+03
    -14.970  0.2271E+02  0.1336E+03
    -14.955  0.2262E+02  0.1339E+03
    -14.940  0.2250E+02  0.1343E+03
    -14.925  0.2237E+02  0.1346E+03
    -14.910  0.2223E+02  0.1349E+03
    -14.895  0.2207E+02  0.1353E+03
    -14.880  0.2189E+02  0.1356E+03
    -14.865  0.2172E+02  0.1359E+03
    -14.850  0.2154E+02  0.1362E+03
    -14.835  0.2136E+02  0.1365E+03
    -14.820  0.2119E+02  0.1369E+03
    -14.805  0.2102E+02  0.1372E+03
    -14.790  0.2086E+02  0.1375E+03
    -14.775  0.2072E+02  0.1378E+03
    -14.760  0.2060E+02  0.1381E+03
    -14.745  0.2049E+02  0.1384E+03
    -14.730  0.2041E+02  0.1387E+03
    -14.716  0.2034E+02  0.1390E+03
    -14.701  0.2029E+02  0.1393E+03
    -14.686  0.2026E+02  0.1396E+03
    -14.671  0.2025E+02  0.1399E+03
    -14.656  0.2026E+02  0.1402E+03
    -14.641  0.2028E+02  0.1405E+03
    -14.626  0.2031E+02  0.1408E+03
    -14.611  0.2036E+02  0.1411E+03
    -14.596  0.2041E+02  0.1415E+03
    -14.581  0.2047E+02  0.1418E+03
    -14.566  0.2053E+02  0.1421E+03
    -14.551  0.2060E+02  0.1424E+03
    -14.536  0.2068E+02  0.1427E+03
    -14.521  0.2076E+02  0.1430E+03
    -14.506  0.2084E+02  0.1433E+03
    -14.491  0.2092E+02  0.1436E+03
    -14.476  0.2100E+02  0.1439E+03
    -14.461  0.2109E+02  0.1442E+03
    -14.446  0.2117E+02  0.1446E+03
    -14.432  0.2125E+02  0.1449E+03
    -14.417  0.2132E+02  0.1452E+03
    -14.402  0.2140E+02  0.1455E+03
    -14.387  0.2146E+02  0.1458E+03
    -14.372  0.2151E+02  0.1462E+03
    -14.357  0.2156E+02  0.1465E+03
    -14.342  0.2160E+02  0.1468E+03
    -14.327  0.2162E+02  0.1471E+03
    -14.312  0.2164E+02  0.1474E+03
    -14.297  0.2164E+02  0.1478E+03
    -14.282  0.2164E+02  0.1481E+03
    -14.267  0.2164E+02  0.1484E+03
    -14.252  0.2163E+02  0.1487E+03
    -14.237  0.2162E+02  0.1491E+03
    -14.222  0.2161E+02  0.1494E+03
    -14.207  0.2160E+02  0.1497E+03
    -14.192  0.2160E+02  0.1500E+03
    -14.177  0.2161E+02  0.1504E+03
    -14.162  0.2162E+02  0.1507E+03
    -14.148  0.2164E+02  0.1510E+03
    -14.133  0.2166E+02  0.1513E+03
    -14.118  0.2169E+02  0.1517E+03
    -14.103  0.2172E+02  0.1520E+03
    -14.088  0.2176E+02  0.1523E+03
    -14.073  0.2179E+02  0.1526E+03
    -14.058  0.2182E+02  0.1530E+03
    -14.043  0.2185E+02  0.1533E+03
    -14.028  0.2188E+02  0.1536E+03
    -14.013  0.2190E+02  0.1539E+03
    -13.998  0.2192E+02  0.1543E+03
    -13.983  0.2193E+02  0.1546E+03
    -13.968  0.2193E+02  0.1549E+03
    -13.953  0.2193E+02  0.1552E+03
    -13.938  0.2192E+02  0.1556E+03
    -13.923  0.2191E+02  0.1559E+03
    -13.908  0.2190E+02  0.1562E+03
    -13.893  0.2188E+02  0.1566E+03
    -13.878  0.2187E+02  0.1569E+03
    -13.864  0.2187E+02  0.1572E+03
    -13.849  0.2186E+02  0.1575E+03
    -13.834  0.2186E+02  0.1579E+03
    -13.819  0.2187E+02  0.1582E+03
    -13.804  0.2189E+02  0.1585E+03
    -13.789  0.2191E+02  0.1588E+03
    -13.774  0.2194E+02  0.1592E+03
    -13.759  0.2198E+02  0.1595E+03
    -13.744  0.2202E+02  0.1598E+03
    -13.729  0.2207E+02  0.1602E+03
    -13.714  0.2212E+02  0.1605E+03
    -13.699  0.2218E+02  0.1608E+03
    -13.684  0.2223E+02  0.1612E+03
    -13.669  0.2229E+02  0.1615E+03
    -13.654  0.2234E+02  0.1618E+03
    -13.639  0.2238E+02  0.1622E+03
    -13.624  0.2242E+02  0.1625E+03
    -13.609  0.2245E+02  0.1628E+03
    -13.594  0.2247E+02  0.1632E+03
    -13.580  0.2248E+02  0.1635E+03
    -13.565  0.2248E+02  0.1638E+03
    -13.550  0.2246E+02  0.1642E+03
    -13.535  0.2244E+02  0.1645E+03
    -13.520  0.2241E+02  0.1648E+03
    -13.505  0.2237E+02  0.1652E+03
    -13.490  0.2233E+02  0.1655E+03
    -13.475  0.2228E+02  0.1658E+03
    -13.460  0.2222E+02  0.1662E+03
    -13.445  0.2217E+02  0.1665E+03
    -13.430  0.2211E+02  0.1668E+03
    -13.415  0.2205E+02  0.1672E+03
    -13.400  0.2200E+02  0.1675E+03
    -13.385  0.2195E+02  0.1678E+03
    -13.370  0.2190E+02  0.1681E+03
    -13.355  0.2185E+02  0.1685E+03
    -13.340  0.2181E+02  0.1688E+03
    -13.325  0.2176E+02  0.1691E+03
    -13.311  0.2172E+02  0.1695E+03
    -13.296  0.2167E+02  0.1698E+03
    -13.281  0.2162E+02  0.1701E+03
    -13.266  0.2156E+02  0.1704E+03
    -13.251  0.2150E+02  0.1707E+03
    -13.236  0.2143E+02  0.1711E+03
    -13.221  0.2134E+02  0.1714E+03
    -13.206  0.2125E+02  0.1717E+03
    -13.191  0.2114E+02  0.1720E+03
    -13.176  0.2102E+02  0.1723E+03
    -13.161  0.2088E+02  0.1726E+03
    -13.146  0.2074E+02  0.1730E+03
    -13.131  0.2059E+02  0.1733E+03
    -13.116  0.2043E+02  0.1736E+03
    -13.101  0.2026E+02  0.1739E+03
    -13.086  0.2010E+02  0.1742E+03
    -13.071  0.1994E+02  0.1745E+03
    -13.056  0.1978E+02  0.1748E+03
    -13.041  0.1963E+02  0.1751E+03
    -13.027  0.1950E+02  0.1753E+03
    -13.012  0.1938E+02  0.1756E+03
    -12.997  0.1928E+02  0.1759E+03
    -12.982  0.1920E+02  0.1762E+03
    -12.967  0.1914E+02  0.1765E+03
    -12.952  0.1910E+02  0.1768E+03
    -12.937  0.1908E+02  0.1771E+03
    -12.922  0.1907E+02  0.1774E+03
    -12.907  0.1909E+02  0.1776E+03
    -12.892  0.1911E+02  0.1779E+03
    -12.877  0.1915E+02  0.1782E+03
    -12.862  0.1920E+02  0.1785E+03
    -12.847  0.1926E+02  0.1788E+03
    -12.832  0.1932E+02  0.1791E+03
    -12.817  0.1938E+02  0.1794E+03
    -12.802  0.1945E+02  0.1797E+03
    -12.787  0.1952E+02  0.1799E+03
    -12.772  0.1959E+02  0.1802E+03
    -12.757  0.1966E+02  0.1805E+03
    -12.743  0.1973E+02  0.1808E+03
    -12.728  0.1981E+02  0.1811E+03
    -12.713  0.1988E+02  0.1814E+03
    -12.698  0.1996E+02  0.1817E+03
    -12.683  0.2005E+02  0.1820E+03
    -12.668  0.2014E+02  0.1823E+03
    -12.653  0.2023E+02  0.1826E+03
    -12.638  0.2033E+02  0.1829E+03
    -12.623  0.2043E+02  0.1832E+03
    -12.608  0.2053E+02  0.1835E+03
    -12.593  0.2065E+02  0.1838E+03
    -12.578  0.2076E+02  0.1842E+03
    -12.563  0.2087E+02  0.1845E+03
    -12.548  0.2099E+02  0.1848E+03
    -12.533  0.2110E+02  0.1851E+03
    -12.518  0.2121E+02  0.1854E+03
    -12.503  0.2132E+02  0.1857E+03
    -12.488  0.2142E+02  0.1861E+03
    -12.473  0.2151E+02  0.1864E+03
    -12.459  0.2160E+02  0.1867E+03
    -12.444  0.2167E+02  0.1870E+03
    -12.429  0.2173E+02  0.1873E+03
    -12.414  0.2179E+02  0.1877E+03
    -12.399  0.2183E+02  0.1880E+03
    -12.384  0.2186E+02  0.1883E+03
    -12.369  0.2189E+02  0.1887E+03
    -12.354  0.2190E+02  0.1890E+03
    -12.339  0.2191E+02  0.1893E+03
    -12.324  0.2191E+02  0.1896E+03
    -12.309  0.2191E+02  0.1900E+03
    -12.294  0.2191E+02  0.1903E+03
    -12.279  0.2190E+02  0.1906E+03
    -12.264  0.2190E+02  0.1909E+03
    -12.249  0.2190E+02  0.1913E+03
    -12.234  0.2190E+02  0.1916E+03
    -12.219  0.2191E+02  0.1919E+03
    -12.204  0.2192E+02  0.1923E+03
    -12.189  0.2194E+02  0.1926E+03
    -12.175  0.2197E+02  0.1929E+03
    -12.160  0.2201E+02  0.1932E+03
    -12.145  0.2205E+02  0.1936E+03
    -12.130  0.2210E+02  0.1939E+03
    -12.115  0.2216E+02  0.1942E+03
    -12.100  0.2223E+02  0.1946E+03
    -12.085  0.2231E+02  0.1949E+03
    -12.070  0.2240E+02  0.1952E+03
    -12.055  0.2249E+02  0.1956E+03
    -12.040  0.2259E+02  0.1959E+03
    -12.025  0.2269E+02  0.1962E+03
    -12.010  0.2279E+02  0.1966E+03
    -11.995  0.2289E+02  0.1969E+03
    -11.980  0.2299E+02  0.1973E+03
    -11.965  0.2308E+02  0.1976E+03
    -11.950  0.2315E+02  0.1980E+03
    -11.935  0.2322E+02  0.1983E+03
    -11.920  0.2328E+02  0.1987E+03
    -11.905  0.2332E+02  0.1990E+03
    -11.891  0.2336E+02  0.1994E+03
    -11.876  0.2337E+02  0.1997E+03
    -11.861  0.2338E+02  0.2001E+03
    -11.846  0.2338E+02  0.2004E+03
    -11.831  0.2336E+02  0.2008E+03
    -11.816  0.2335E+02  0.2011E+03
    -11.801  0.2333E+02  0.2015E+03
    -11.786  0.2332E+02  0.2018E+03
    -11.771  0.2331E+02  0.2021E+03
    -11.756  0.2331E+02  0.2025E+03
    -11.741  0.2332E+02  0.2028E+03